<?xml version="1.0"?>
<VTKFile type="UnstructuredGrid" version="0.1" byte_order="LittleEndian">
<UnstructuredGrid>
<Piece NumberOfPoints="1416" NumberOfCells="472">
<Points>
<DataArray type="Float64" NumberOfComponents="3" format="ascii">
0 0 0 0.10457868679590381 0.1045786867961369 0 0 0.14285714285773729 0 0 0 0 0.10457868679590381 0.1045786867961369 0 0.14285714285686729 0 0 0 0.14285714285773729 0 0.1205280434882494 0.2198107335145128 0 0 0.28571428571547469 0 0.10457868679590381 0.1045786867961369 0 0 0.14285714285773729 0 0.1205280434882494 0.2198107335145128 0 0.10457868679590381 0.1045786867961369 0 0.1205280434882494 0.2198107335145128 0 0.23239159885774061 0.13190444287250189 0 0.1205280434882494 0.2198107335145128 0 0.23239159885774061 0.13190444287250189 0 0.24676305227411319 0.28687957031901817 0 0.23239159885774061 0.13190444287250189 0 0.14285714285686729 0 0 0.28571428571359381 0 0 0.10457868679590381 0.1045786867961369 0 0.23239159885774061 0.13190444287250189 0 0.14285714285686729 0 0 0 0.42857142857321201 0 0.12318626960338119 0.35806369368234708 0 0.1237179148261041 0.50000000000170131 0 0.1205280434882494 0.2198107335145128 0 0 0.28571428571547469 0 0.12318626960338119 0.35806369368234708 0 0 0.42857142857321201 0 0 0.28571428571547469 0 0.12318626960338119 0.35806369368234708 0 0.12318626960338119 0.35806369368234708 0 0.24676305227411319 0.28687957031901817 0 0.24734722211536869 0.42872490132986318 0 0.1205280434882494 0.2198107335145128 0 0.12318626960338119 0.35806369368234708 0 0.24676305227411319 0.28687957031901817 0 0.12318626960338119 0.35806369368234708 0 0.24734722211536869 0.42872490132986318 0 0.1237179148261041 0.50000000000170131 0 0.24734722211536869 0.42872490132986318 0 0.37092720430330528 0.3575352362405908 0 0.36988311095923349 0.50220080181584725 0 0.24676305227411319 0.28687957031901817 0 0.24734722211536869 0.42872490132986318 0 0.37092720430330528 0.3575352362405908 0 0.24676305227411319 0.28687957031901817 0 0.37092720430330528 0.3575352362405908 0 0.36915712373071241 0.21636596932123339 0 0.37092720430330528 0.3575352362405908 0 0.49672432738210071 0.28393829206612331 0 0.49462213035585811 0.42900362539316111 0 0.37092720430330528 0.3575352362405908 0 0.49672432738210071 0.28393829206612331 0 0.36915712373071241 0.21636596932123339 0 0.37092720430330528 0.3575352362405908 0 0.49462213035585811 0.42900362539316111 0 0.36988311095923349 0.50220080181584725 0 0.23239159885774061 0.13190444287250189 0 0.28571428571359381 0 0 0.35859653742646141 0.095659861108573122 0 0.28571428571359381 0 0 0.35859653742646141 0.095659861108573122 0 0.42857142857032021 0 0 0.23239159885774061 0.13190444287250189 0 0.35859653742646141 0.095659861108573122 0 0.36915712373071241 0.21636596932123339 0 0.23239159885774061 0.13190444287250189 0 0.24676305227411319 0.28687957031901817 0 0.36915712373071241 0.21636596932123339 0 0.35859653742646141 0.095659861108573122 0 0.36915712373071241 0.21636596932123339 0 0.49780213970257631 0.12951344063459669 0 0.49672432738210071 0.28393829206612331 0 0.36915712373071241 0.21636596932123339 0 0.49780213970257631 0.12951344063459669 0 0.49780213970257631 0.12951344063459669 0 0.42857142857032021 0 0 0.57142857142744297 0 0 0.35859653742646141 0.095659861108573122 0 0.49780213970257631 0.12951344063459669 0 0.42857142857032021 0 0 0.49780213970257631 0.12951344063459669 0 0.57142857142744297 0 0 0.63660835508033609 0.094591959883232241 0 0.71428571428496201 0 0 0.63660835508033609 0.094591959883232241 0 0.77046111744085066 0.12953438606218601 0 0.57142857142744297 0 0 0.71428571428496201 0 0 0.63660835508033609 0.094591959883232241 0 0.62906423254584809 0.2139119727193784 0 0.74962020231513216 0.28479798582519888 0 0.77046111744085066 0.12953438606218601 0 0.63660835508033609 0.094591959883232241 0 0.62906423254584809 0.2139119727193784 0 0.77046111744085066 0.12953438606218601 0 0.49780213970257631 0.12951344063459669 0 0.63660835508033609 0.094591959883232241 0 0.62906423254584809 0.2139119727193784 0 0.49672432738210071 0.28393829206612331 0 0.49780213970257631 0.12951344063459669 0 0.62906423254584809 0.2139119727193784 0 0.49672432738210071 0.28393829206612331 0 0.62906423254584809 0.2139119727193784 0 0.61877313365430409 0.35729950808777972 0 0.49672432738210071 0.28393829206612331 0 0.49462213035585811 0.42900362539316111 0 0.61877313365430409 0.35729950808777972 0 0.49462213035585811 0.42900362539316111 0 0.61877313365430409 0.35729950808777972 0 0.61994046021572546 0.50050770882833406 0 0.61877313365430409 0.35729950808777972 0 0.74395712453556107 0.42868954426104389 0 0.61994046021572546 0.50050770882833406 0 0.62906423254584809 0.2139119727193784 0 0.61877313365430409 0.35729950808777972 0 0.74962020231513216 0.28479798582519888 0 0.61877313365430409 0.35729950808777972 0 0.74395712453556107 0.42868954426104389 0 0.74962020231513216 0.28479798582519888 0 0.74962020231513216 0.28479798582519888 0 0.87039329201519555 0.35777862987572301 0 0.88067757021423154 0.21876991540137231 0 0.74395712453556107 0.42868954426104389 0 0.74962020231513216 0.28479798582519888 0 0.87039329201519555 0.35777862987572301 0 0.74395712453556107 0.42868954426104389 0 0.87039329201519555 0.35777862987572301 0 0.87402660110768737 0.50072468068975784 0 0.87039329201519555 0.35777862987572301 0 0.87402660110768737 0.50072468068975784 0 1 0.42857142857032021 0 0.87039329201519555 0.35777862987572301 0 1 0.28571428571359381 0 1 0.42857142857032021 0 0.87039329201519555 0.35777862987572301 0 0.88067757021423154 0.21876991540137231 0 1 0.28571428571359381 0 0.88067757021423154 0.21876991540137231 0 1 0.14285714285686729 0 1 0.28571428571359381 0 0.88067757021423154 0.21876991540137231 0 0.89542131320405993 0.10457868679576519 0 1 0.14285714285686729 0 0.89542131320405993 0.10457868679576519 0 0.85714285714248095 0 0 1 0 0 0.89542131320405993 0.10457868679576519 0 1 0.14285714285686729 0 1 0 0 0.71428571428496201 0 0 0.85714285714248095 0 0 0.77046111744085066 0.12953438606218601 0 0.89542131320405993 0.10457868679576519 0 0.85714285714248095 0 0 0.77046111744085066 0.12953438606218601 0 0.74962020231513216 0.28479798582519888 0 0.88067757021423154 0.21876991540137231 0 0.77046111744085066 0.12953438606218601 0 0.88067757021423154 0.21876991540137231 0 0.89542131320405993 0.10457868679576519 0 0.77046111744085066 0.12953438606218601 0 0.77107999172528308 0.87126586664953709 0 0.88289663992475431 0.7838324948760429 0 0.75462543859776565 0.71847561378613189 0 0.77107999172528308 0.87126586664953709 0 0.89597942421617771 0.89597942421617771 0 0.88289663992475431 0.7838324948760429 0 0.77107999172528308 0.87126586664953709 0 0.89597942421617771 0.89597942421617771 0 0.85714285714248095 1 0 0.77107999172528308 0.87126586664953709 0 0.71428571428496201 1 0 0.85714285714248095 1 0 0.89597942421617771 0.89597942421617771 0 1 1 0 1 0.85714285714248095 0 0.89597942421617771 0.89597942421617771 0 0.85714285714248095 1 0 1 1 0 0.88289663992475431 0.7838324948760429 0 1 0.71428571428496201 0 1 0.85714285714248095 0 0.89597942421617771 0.89597942421617771 0 0.88289663992475431 0.7838324948760429 0 1 0.85714285714248095 0 0.88289663992475431 0.7838324948760429 0 0.87569498500930032 0.64584549317696871 0 1 0.71428571428496201 0 0.87569498500930032 0.64584549317696871 0 1 0.57142857142744297 0 1 0.71428571428496201 0 0.87402660110768737 0.50072468068975784 0 1 0.42857142857032021 0 1 0.57142857142744297 0 0.87569498500930032 0.64584549317696871 0 0.87402660110768737 0.50072468068975784 0 1 0.57142857142744297 0 0.87569498500930032 0.64584549317696871 0 0.87402660110768737 0.50072468068975784 0 0.75217156042298328 0.57142857143374093 0 0.74395712453556107 0.42868954426104389 0 0.87402660110768737 0.50072468068975784 0 0.75217156042298328 0.57142857143374093 0 0.88289663992475431 0.7838324948760429 0 0.87569498500930032 0.64584549317696871 0 0.75462543859776565 0.71847561378613189 0 0.87569498500930032 0.64584549317696871 0 0.75217156042298328 0.57142857143374093 0 0.75462543859776565 0.71847561378613189 0 0.75462543859776565 0.71847561378613189 0 0.62020719605389174 0.64337743701966787 0 0.62820860079938645 0.78795395941460822 0 0.75217156042298328 0.57142857143374093 0 0.75462543859776565 0.71847561378613189 0 0.62020719605389174 0.64337743701966787 0 0.74395712453556107 0.42868954426104389 0 0.75217156042298328 0.57142857143374093 0 0.61994046021572546 0.50050770882833406 0 0.75217156042298328 0.57142857143374093 0 0.61994046021572546 0.50050770882833406 0 0.62020719605389174 0.64337743701966787 0 0.49462213035585811 0.42900362539316111 0 0.61994046021572546 0.50050770882833406 0 0.49336243329648061 0.57404262755753699 0 0.61994046021572546 0.50050770882833406 0 0.62020719605389174 0.64337743701966787 0 0.49336243329648061 0.57404262755753699 0 0.62020719605389174 0.64337743701966787 0 0.49336243329648061 0.57404262755753699 0 0.49462248589941132 0.72194975613875201 0 0.62020719605389174 0.64337743701966787 0 0.62820860079938645 0.78795395941460822 0 0.49462248589941132 0.72194975613875201 0 0.62820860079938645 0.78795395941460822 0 0.49817729930567289 0.8734572123725528 0 0.49462248589941132 0.72194975613875201 0 0.62820860079938645 0.78795395941460822 0 0.63663603550854941 0.90653540768733964 0 0.49817729930567289 0.8734572123725528 0 0.77107999172528308 0.87126586664953709 0 0.62820860079938645 0.78795395941460822 0 0.63663603550854941 0.90653540768733964 0 0.77107999172528308 0.87126586664953709 0 0.75462543859776565 0.71847561378613189 0 0.62820860079938645 0.78795395941460822 0 0.77107999172528308 0.87126586664953709 0 0.63663603550854941 0.90653540768733964 0 0.71428571428496201 1 0 0.63663603550854941 0.90653540768733964 0 0.71428571428496201 1 0 0.57142857142744297 1 0 0.63663603550854941 0.90653540768733964 0 0.49817729930567289 0.8734572123725528 0 0.57142857142744297 1 0 0.49817729930567289 0.8734572123725528 0 0.35714285714195693 0.91161422340059473 0 0.42857142857032021 1 0 
[...]
<PointData Scalars="" Vectors="displacement," Tensors="">
<DataArray type="Float64" Name="displacement" NumberOfComponents="3" format="ascii">
4.2008378081287008e-07 7.0798121829231486e-05 0 0.00092769043752982748 0.10784254612691971 0 2.6868545023054011e-06 0.14284120827014071 0 4.2008378081287008e-07 7.0798121829231486e-05 0 0.00092769043752982748 0.10784254612691971 0 2.0876222272047067e-06 0.00016783578414606256 0 2.6868545023054011e-06 0.14284120827014071 0 0.0015628936524155154 0.22767105905851578 0 3.5040237477037773e-06 0.28572546894404988 0 0.00092769043752982748 0.10784254612691971 0 2.6868545023054011e-06 0.14284120827014071 0 0.0015628936524155154 0.22767105905851578 0 0.00092769043752982748 0.10784254612691971 0 0.0015628936524155154 0.22767105905851578 0 0.00086823003350543898 0.13963873922315687 0 0.0015628936524155154 0.22767105905851578 0 0.00086823003350543898 0.13963873922315687 0 0.00066320697016311245 0.30620844897950678 0 0.00086823003350543898 0.13963873922315687 0 2.0876222272047067e-06 0.00016783578414606256 0 4.6332273254350877e-08 0.00014699784257476376 0 0.00092769043752982748 0.10784254612691971 0 0.00086823003350543898 0.13963873922315687 0 2.0876222272047067e-06 0.00016783578414606256 0 4.7152202634176649e-06 0.42858099495068486 0 0.0019422792061349844 0.37229712508528146 0 0.0028918364359915576 0.52255347816207887 0 0.0015628936524155154 0.22767105905851578 0 3.5040237477037773e-06 0.28572546894404988 0 0.0019422792061349844 0.37229712508528146 0 4.7152202634176649e-06 0.42858099495068486 0 3.5040237477037773e-06 0.28572546894404988 0 0.0019422792061349844 0.37229712508528146 0 0.0019422792061349844 0.37229712508528146 0 0.00066320697016311245 0.30620844897950678 0 0.001246157895813488 0.46097705502229341 0 0.0015628936524155154 0.22767105905851578 0 0.0019422792061349844 0.37229712508528146 0 0.00066320697016311245 0.30620844897950678 0 0.0019422792061349844 0.37229712508528146 0 0.001246157895813488 0.46097705502229341 0 0.0028918364359915576 0.52255347816207887 0 0.001246157895813488 0.46097705502229341 0 -0.0026131197171815547 0.38964345708253123 0 -0.0020017936439621254 0.55326070285785522 0 0.00066320697016311245 0.30620844897950678 0 0.001246157895813488 0.46097705502229341 0 -0.0026131197171815547 0.38964345708253123 0 0.00066320697016311245 0.30620844897950678 0 -0.0026131197171815547 0.38964345708253123 0 -0.0018510081293083643 0.23385492180595072 0 -0.0026131197171815547 0.38964345708253123 0 -0.0067908897673216277 0.30906228042929207 0 -0.0080020165207050405 0.47211060402605964 0 -0.0026131197171815547 0.38964345708253123 0 -0.0067908897673216277 0.30906228042929207 0 -0.0018510081293083643 0.23385492180595072 0 -0.0026131197171815547 0.38964345708253123 0 -0.0080020165207050405 0.47211060402605964 0 -0.0020017936439621254 0.55326070285785522 0 0.00086823003350543898 0.13963873922315687 0 4.6332273254350877e-08 0.00014699784257476376 0 -0.00071938666235240017 0.10291718403591585 0 4.6332273254350877e-08 0.00014699784257476376 0 -0.00071938666235240017 0.10291718403591585 0 -4.5392319739985242e-07 0.0001548619291760797 0 0.00086823003350543898 0.13963873922315687 0 -0.00071938666235240017 0.10291718403591585 0 -0.0018510081293083643 0.23385492180595072 0 0.00086823003350543898 0.13963873922315687 0 0.00066320697016311245 0.30620844897950678 0 -0.0018510081293083643 0.23385492180595072 0 -0.00071938666235240017 0.10291718403591585 0 -0.0018510081293083643 0.23385492180595072 0 -0.0037523914835537269 0.13973890382699966 0 -0.0067908897673216277 0.30906228042929207 0 -0.0018510081293083643 0.23385492180595072 0 -0.0037523914835537269 0.13973890382699966 0 -0.0037523914835537269 0.13973890382699966 0 -4.5392319739985242e-07 0.0001548619291760797 0 -4.1130165013072594e-06 0.00015228326546885934 0 -0.00071938666235240017 0.10291718403591585 0 -0.0037523914835537269 0.13973890382699966 0 -4.5392319739985242e-07 0.0001548619291760797 0 -0.0037523914835537269 0.13973890382699966 0 -4.1130165013072594e-06 0.00015228326546885934 0 -0.0049880961040982942 0.10076642243366093 0 -4.8114328169602167e-06 0.00014935407647626424 0 -0.0049880961040982942 0.10076642243366093 0 -0.0092054740727939999 0.13400007954235429 0 -4.1130165013072594e-06 0.00015228326546885934 0 -4.8114328169602167e-06 0.00014935407647626424 0 -0.0049880961040982942 0.10076642243366093 0 -0.0097624840291644227 0.22908402277320736 0 -0.015853743976053613 0.29864753528250576 0 -0.0092054740727939999 0.13400007954235429 0 -0.0049880961040982942 0.10076642243366093 0 -0.0097624840291644227 0.22908402277320736 0 -0.0092054740727939999 0.13400007954235429 0 -0.0037523914835537269 0.13973890382699966 0 -0.0049880961040982942 0.10076642243366093 0 -0.0097624840291644227 0.22908402277320736 0 -0.0067908897673216277 0.30906228042929207 0 -0.0037523914835537269 0.13973890382699966 0 -0.0097624840291644227 0.22908402277320736 0 -0.0067908897673216277 0.30906228042929207 0 -0.0097624840291644227 0.22908402277320736 0 -0.013101223180479345 0.38691531498206927 0 -0.0067908897673216277 0.30906228042929207 0 -0.0080020165207050405 0.47211060402605964 0 -0.013101223180479345 0.38691531498206927 0 -0.0080020165207050405 0.47211060402605964 0 -0.013101223180479345 0.38691531498206927 0 -0.014783177952020313 0.54885051685262976 0 -0.013101223180479345 0.38691531498206927 0 -0.019955997978547659 0.45485061056417603 0 -0.014783177952020313 0.54885051685262976 0 -0.0097624840291644227 0.22908402277320736 0 -0.013101223180479345 0.38691531498206927 0 -0.015853743976053613 0.29864753528250576 0 -0.013101223180479345 0.38691531498206927 0 -0.019955997978547659 0.45485061056417603 0 -0.015853743976053613 0.29864753528250576 0 -0.015853743976053613 0.29864753528250576 0 -0.021395623230772841 0.36204203013874914 0 -0.015178246746663612 0.21911339001335348 0 -0.019955997978547659 0.45485061056417603 0 -0.015853743976053613 0.29864753528250576 0 -0.021395623230772841 0.36204203013874914 0 -0.019955997978547659 0.45485061056417603 0 -0.021395623230772841 0.36204203013874914 0 -0.026129546952062741 0.51076815055531444 0 -0.021395623230772841 0.36204203013874914 0 -0.026129546952062741 0.51076815055531444 0 -0.024743195665556876 0.41038025712597631 0 -0.021395623230772841 0.36204203013874914 0 -0.018266374042646399 0.27223243862639085 0 -0.024743195665556876 0.41038025712597631 0 -0.021395623230772841 0.36204203013874914 0 -0.015178246746663612 0.21911339001335348 0 -0.018266374042646399 0.27223243862639085 0 -0.015178246746663612 0.21911339001335348 0 -0.010099445191076129 0.13526788068623721 0 -0.018266374042646399 0.27223243862639085 0 -0.015178246746663612 0.21911339001335348 0 -0.0081762783103181292 0.1038757534760044 0 -0.010099445191076129 0.13526788068623721 0 -0.0081762783103181292 0.1038757534760044 0 -7.3538884163823485e-06 0.00014449147513025581 0 -6.2097394159448063e-06 0.00013257626239108087 0 -0.0081762783103181292 0.1038757534760044 0 -0.010099445191076129 0.13526788068623721 0 -6.2097394159448063e-06 0.00013257626239108087 0 -4.8114328169602167e-06 0.00014935407647626424 0 -7.3538884163823485e-06 0.00014449147513025581 0 -0.0092054740727939999 0.13400007954235429 0 -0.0081762783103181292 0.1038757534760044 0 -7.3538884163823485e-06 0.00014449147513025581 0 -0.0092054740727939999 0.13400007954235429 0 -0.015853743976053613 0.29864753528250576 0 -0.015178246746663612 0.21911339001335348 0 -0.0092054740727939999 0.13400007954235429 0 -0.015178246746663612 0.21911339001335348 0 -0.0081762783103181292 0.1038757534760044 0 -0.0092054740727939999 0.13400007954235429 0 -0.014257643919431849 0.97187276534403833 0 -0.026191857225663886 0.82193946118576289 0 -0.020645788354651265 0.78521234321486599 0 -0.014257643919431849 0.97187276534403833 0 -0.019175394810697979 0.95204856138819827 0 -0.026191857225663886 0.82193946118576289 0 -0.014257643919431849 0.97187276534403833 0 -0.019175394810697979 0.95204856138819827 0 -0.0069491631306720777 1.113048236484649 0 -0.014257643919431849 0.97187276534403833 0 -0.0025174991568026502 1.1600327246935946 0 -0.0069491631306720777 1.113048236484649 0 -0.019175394810697979 0.95204856138819827 0 -0.00018140856798991707 0.99989726967404002 0 -0.025284532285228048 0.83967949336709236 0 -0.019175394810697979 0.95204856138819827 0 -0.0069491631306720777 1.113048236484649 0 -0.00018140856798991707 0.99989726967404002 0 -0.026191857225663886 0.82193946118576289 0 -0.031026700307832545 0.69222773365291002 0 -0.025284532285228048 0.83967949336709236 0 -0.019175394810697979 0.95204856138819827 0 -0.026191857225663886 0.82193946118576289 0 -0.025284532285228048 0.83967949336709236 0 -0.026191857225663886 0.82193946118576289 0 -0.028231010820478325 0.66719654973024034 0 -0.031026700307832545 0.69222773365291002 0 -0.028231010820478325 0.66719654973024034 0 -0.029426727859913349 0.54994931870521135 0 -0.031026700307832545 0.69222773365291002 0 -0.026129546952062741 0.51076815055531444 0 -0.024743195665556876 0.41038025712597631 0 -0.029426727859913349 0.54994931870521135 0 -0.028231010820478325 0.66719654973024034 0 -0.026129546952062741 0.51076815055531444 0 -0.029426727859913349 0.54994931870521135 0 -0.028231010820478325 0.66719654973024034 0 -0.026129546952062741 0.51076815055531444 0 -0.022190468639181601 0.61324711017450084 0 -0.019955997978547659 0.45485061056417603 0 -0.026129546952062741 0.51076815055531444 0 -0.022190468639181601 0.61324711017450084 0 -0.026191857225663886 0.82193946118576289 0 -0.028231010820478325 0.66719654973024034 0 -0.020645788354651265 0.78521234321486599 0 -0.028231010820478325 0.66719654973024034 0 -0.022190468639181601 0.61324711017450084 0 -0.020645788354651265 0.78521234321486599 0 -0.020645788354651265 0.78521234321486599 0 -0.013749663198272675 0.71694190573179528 0 -0.009947255230032483 0.89470817599097552 0 -0.022190468639181601 0.61324711017450084 0 -0.020645788354651265 0.78521234321486599 0 -0.013749663198272675 0.71694190573179528 0 -0.019955997978547659 0.45485061056417603 0 -0.022190468639181601 0.61324711017450084 0 -0.014783177952020313 0.54885051685262976 0 -0.022190468639181601 0.61324711017450084 0 -0.014783177952020313 0.54885051685262976 0 -0.013749663198272675 0.71694190573179528 0 -0.0080020165207050405 0.47211060402605964 0 -0.014783177952020313 0.54885051685262976 0 -0.0072226591204748456 0.64056904795333225 0 -0.014783177952020313 0.54885051685262976 0 -0.013749663198272675 0.71694190573179528 0 -0.0072226591204748456 0.64056904795333225 0 -0.013749663198272675 0.71694190573179528 0 -0.0072226591204748456 0.64056904795333225 0 -0.0042937428679707219 0.81963519698902676 0 -0.013749663198272675 0.71694190573179528 0 -0.009947255230032483 0.89470817599097552 0 -0.0042937428679707219 0.81963519698902676 0 -0.009947255230032483 0.89470817599097552 0 0.00091246962559702672 1.0123047885324352 0 -0.0042937428679707219 0.81963519698902676 0 -0.009947255230032483 0.89470817599097552 0 -0.0043601759996945441 1.0470535652854527 0 0.00091246962559702672 1.0123047885324352 0 -0.014257643919431849 0.97187276534403833 0 -0.009947255230032483 0.89470817599097552 0 -0.0043601759996945441 1.0470535652854527 0 -0.014257643919431849 0.97187276534403833 0 -0.020645788354651265 0.78521234321486599 0 -0.009947255230032483 0.89470817599097552 0 -0.014257643919431849 0.97187276534403833 0 -0.0043601759996945441 1.0470535652854527 0 -0.0025174991568026502 1.1600327246935946 0 -0.0043601759996945441 1.0470535652854527 0 -0.0025174991568026502 1.1600327246935946 0 0.0033516352731903947 1.1794842327522934 0 -0.0043601759996945441 1.0470535652854527 0 0.00091246962559702672 1.0123047885324352 0 0.0033516352731903947 1.1794842327522934 0 0.00091246962559702672 1.0123047885324352 0 0.008008276961697279 1.0511726561037875 0 0.0089270098063805262 1.1776929669964955 0 0.00091246962559702672 1.0123047885324352 0 0.0089270098063805262 1.1776929669964955 0 0.0033516352731903947 1.1794842327522934 0 0.00091246962559702672 1.0123047885324352 0 0.0041836319055663365 0.90547009547405355 0 -0.0042937428679707219 0.81963519698902676 0 0.00091246962559702672 1.0123047885324352 0 0.0041836319055663365 0.90547009547405355 0 0.008008276961697279 1.0511726561037875 0 0.0041836319055663365 0.90547009547405355 0 0.008008276961697279 1.0511726561037875 0 0.010254179969133524 0.974378922528503 0 0.0041836319055663365 0.90547009547405355 0 0.0058472761511652064 0.79270733246189551 0 0.010254179969133524 0.974378922528503 0 0.008008276961697279 1.0511726561037875 0 0.0089270098063805262 1.1776929669964955 0 0.013953235711235227 1.1551701963651315 0 0.008008276961697279 1.0511726561037875 0 0.010254179969133524 0.974378922528503 0 0.013953235711235227 1.1551701963651315 0 -0.0080020165207050405 0.47211060402605964 0 -0.0072226591204748456 0.64056904795333225 0 -0.0020017936439621254 0.55326070285785522 0 -0.0072226591204748456 0.64056904795333225 0 0.00046911311669205376 0.72985190652462917 0 -0.0020017936439621254 0.55326070285785522 0 0.0041836319055663365 0.90547009547405355 0 -0.0042937428679707219 0.81963519698902676 0 0.00046911311669205376 0.72985190652462917 0 -0.0072226591204748456 0.64056904795333225 0 -0.0042937428679707219 0.81963519698902676 0 0.00046911311669205376 0.72985190652462917 0 0.00046911311669205376 0.72985190652462917 0 0.0029100745114490163 0.6204721814440497 0 0.0058472761511652064 0.79270733246189551 0 0.0041836319055663365 0.90547009547405355 0 0.00046911311669205376 0.72985190652462917 0 0.0058472761511652064 0.79270733246189551 0 0.00046911311669205376 0.72985190652462917 0 -0.0020017936439621254 0.55326070285785522 0 0.0029100745114490163 0.6204721814440497 0 0.001246157895813488 0.46097705502229341 0 -0.0020017936439621254 0.55326070285785522 0 0.0029100745114490163 0.6204721814440497 0 0.0029100745114490163 0.6204721814440497 0 0.004766572237649965 0.68077985822090425 0 0.0028918364359915576 0.52255347816207887 0 0.001246157895813488 0.46097705502229341 0 0.0029100745114490163 0.6204721814440497 0 0.0028918364359915576 0.52255347816207887 0 0.0029100745114490163 0.6204721814440497 0 0.0058472761511652064 0.79270733246189551 0 0.004766572237649965 0.68077985822090425 0 0.0058472761511652064 0.79270733246189551 0 0.004766572237649965 0.68077985822090425 0 0.0079073997359411299 0.83559601450552989 0 0.004766572237649965 0.68077985822090425 0 1.2057074252588319e-05 0.71431402469166816 0 0.0079073997359411299 0.83559601450552989 0 0.004766572237649965 0.68077985822090425 0 1.2057074252588319e-05 0.71431402469166816 0 6.7129685053252923e-06 0.57144417089998489 0 0.004766572237649965 0.68077985822090425 0 0.0028918364359915576 0.52255347816207887 0 6.7129685053252923e-06 0.57144417089998489 0 4.7152202634176649e-06 0.42858099495068486 0 0.0028918364359915576 0.52255347816207887 0 6.7129685053252923e-06 0.57144417089998489 0 0.010254179969133524 0.974378922528503 0 0.010320864554107901 0.95462694360232669 0 0.015314330073002659 1.1062575511334767 0 0.010254179969133524 0.974378922528503 0 0.015314330073002659 1.1062575511334767 0 0.013953235711235227 1.1551701963651315 0 0.0058472761511652064 0.79270733246189551 0 0.010254179969133524 0.974378922528503 0 0.0079073997359411299 0.83559601450552989 0 0.010254179969133524 0.974378922528503 0 0.0079073997359411299 0.83559601450552989 0 0.010320864554107901 0.95462694360232669 0 0.0079073997359411299 0.83559601450552989 0 1.2206450053895242e-05 0.85716367855944797 0 0.010320864554107901 0.95462694360232669 0 1.2057074252588319e-05 0.71431402469166816 0 0.0079073997359411299 0.83559601450552989 0 1.2206450053895242e-05 0.85716367855944797 0 0.010320864554107901 0.95462694360232669 0 4.117284939133383e-05 1.0001192941677275 0 0.015314330073002659 1.1062575511334767 0 1.2206450053895242e-05 0.85716367855944797 0 0.010320864554107901 0.95462694360232669 0 4.117284939133383e-05 1.0001192941677275 0 4.117284939133383e-05 1.0001192941677275 0 -0.0003206906205790146 1.1611560134517547 0 -1.8908839394069418e-05 1.1428747052322819 0 4.117284939133383e-05 1.0001192941677275 0 -0.0003206906205790146 1.1611560134517547 0 0.015314330073002659 1.1062575511334767 0 0.015314330073002659 1.1062575511334767 0 0.0027666494146699645 1.21695851696072 0 0.013953235711235227 1.1551701963651315 0 -0.0003206906205790146 1.1611560134517547 0 0.015314330073002659 1.1062575511334767 0 0.0027666494146699645 1.21695851696072 0 -0.0003206906205790146 1.1611560134517547 0 0.0027666494146699645 1.21695851696072 0 -0.0035568496870451651 1.2791040046299067 0 0.0027666494146699645 1.21695851696072 0 -0.0035568496870451651 1.2791040046299067 0 0.00068161613741411352 1.3290749831866209 0 -0.0003206906205790146 1.1611560134517547 0 -0.0035568496870451651 1.2791040046299067 0 -1.8908839394069418e-05 1.1428747052322819 0 -0.0035568496870451651 1.2791040046299067 0 -1.8908839394069418e-05 1.1428747052322819 0 -3.549218321538863e-06 1.285739086337953 0 -0.00262808230740764 1.381563104302703 0 -3.549218321538863e-06 1.285739086337953 0 -7.2543154047124916e-06 1.4285890385117863 0 -0.0035568496870451651 1.2791040046299067 0 -0.00262808230740764 1.381563104302703 0 -3.549218321538863e-06 1.285739086337953 0 -7.2543154047124916e-06 1.4285890385117863 0 -0.0027837927454085836 1.5213499808099404 0 -4.0303394897596757e-06 1.5714387458995087 0 -0.00262808230740764 1.381563104302703 0 -7.2543154047124916e-06 1.4285890385117863 0 -0.0027837927454085836 1.5213499808099404 0 -0.0027837927454085836 1.5213499808099404 0 -0.0024816470693299359 1.4145081099111925 0 -0.00049208263298387476 1.5400283863694162 0 -0.00262808230740764 1.381563104302703 0 -0.0027837927454085836 1.5213499808099404 0 -0.0024816470693299359 1.4145081099111925 0 -0.0035568496870451651 1.2791040046299067 0 -0.0024816470693299359 1.4145081099111925 0 0.00068161613741411352 1.3290749831866209 0 -0.0035568496870451651 1.2791040046299067 0 -0.00262808230740764 1.381563104302703 0 -0.0024816470693299359 1.4145081099111925 0 0.0025533457963829425 1.4406889116118924 0 0.00640346345144317 1.3516376226839302 0 0.00068161613741411352 1.3290749831866209 0 -0.0024816470693299359 1.4145081099111925 0 0.0025533457963829425 1.4406889116118924 0 0.00068161613741411352 1.3290749831866209 0 0.0025533457963829425 1.4406889116118924 0 -0.00049208263298387476 1.5400283863694162 0 0.0053616817458626894 1.5513799800504606 0 -0.0024816470693299359 1.4145081099111925 0 0.0025533457963829425 1.4406889116118924 0 -0.00049208263298387476 1.5400283863694162 0 0.0025533457963829425 1.4406889116118924 0 0.0053616817458626894 1.5513799800504606 0 0.0096969872984307686 1.4525372445968889 0 0.0053616817458626894 1.5513799800504606 0 0.0096969872984307686 1.4525372445968889 0 0.012688983651513825 1.554332097560271 0 0.0096969872984307686 1.4525372445968889 0 0.00640346345144317 1.3516376226839302 0 0.012876631888331715 1.3570462704171566 0 0.0025533457963829425 1.4406889116118924 0 0.0096969872984307686 1.4525372445968889 0 0.00640346345144317 1.3516376226839302 0 0.00640346345144317 1.3516376226839302 0 0.0060311723442313166 1.2532107428760324 0 0.0082263652291461355 1.2669983230742419 0 0.0089270098063805262 1.1776929669964955 0 0.0060311723442313166 1.2532107428760324 0 0.0082263652291461355 1.2669983230742419 0 0.0027666494146699645 1.21695851696072 0 0.0060311723442313166 1.2532107428760324 0 0.013953235711235227 1.1551701963651315 0 0.0089270098063805262 1.1776929669964955 0 0.0060311723442313166 1.2532107428760324 0 0.013953235711235227 1.1551701963651315 0 0.00640346345144317 1.3516376226839302 0 0.0060311723442313166 1.2532107428760324 0 0.00068161613741411352 1.3290749831866209 0 0.0027666494146699645 1.21695851696072 0 0.0060311723442313166 1.2532107428760324 0 0.00068161613741411352 1.3290749831866209 0 -0.0014748720205966757 1.8896323163228264 0 -1.8844912974369072e-06 1.999844818839545 0 -1.3994028112743786e-06 1.999872000963139 0 -0.0014748720205966757 1.8896323163228264 0 -1.8844912974369072e-06 1.999844818839545 0 -0.0011917274026794309 1.89924461038717