<?xml version="1.0"?>
<VTKFile type="UnstructuredGrid" version="0.1" byte_order="LittleEndian">
<UnstructuredGrid>
<Piece NumberOfPoints="3186" NumberOfCells="1062">
<Points>
<DataArray type="Float64" NumberOfComponents="3" format="ascii">
0 0 0 0.14285714285686729 0 0 0.10402057578810379 0.10402057578810379 0 0 0 0 0.10402057578810379 0.10402057578810379 0 0 0.14285714285686729 0 0.14285714285686729 0 0 0.10402057578810379 0.10402057578810379 0 0.21622614199724011 0.1170905489967794 0 0.10402057578810379 0.10402057578810379 0 0.12873413335214179 0.22892000827465461 0 0.21622614199724011 0.1170905489967794 0 0.10402057578810379 0.10402057578810379 0 0 0.14285714285686729 0 0.12873413335214179 0.22892000827465461 0 0 0.14285714285686729 0 0 0.28571428571359381 0 0.12873413335214179 0.22892000827465461 0 0.093737460955887239 0.36334567880837831 0 0 0.28571428571359381 0 0 0.42857142857032021 0 0.093737460955887239 0.36334567880837831 0 0 0.28571428571359381 0 0.12873413335214179 0.22892000827465461 0 0.093737460955887239 0.36334567880837831 0 0.12873413335214179 0.22892000827465461 0 0.21341038379882901 0.37169997079090128 0 0.12873413335214179 0.22892000827465461 0 0.28183877965613813 0.2453094238274868 0 0.21622614199724011 0.1170905489967794 0 0.12873413335214179 0.22892000827465461 0 0.21341038379882901 0.37169997079090128 0 0.28183877965613813 0.2453094238274868 0 0.21341038379882901 0.37169997079090128 0 0.28183877965613813 0.2453094238274868 0 0.35714458040172548 0.37949340689832922 0 0.28183877965613813 0.2453094238274868 0 0.35714458040172548 0.37949340689832922 0 0.42857142856968189 0.24782843958009351 0 0.28183877965613813 0.2453094238274868 0 0.35419193461659548 0.1242932860904311 0 0.42857142856968189 0.24782843958009351 0 0.28183877965613813 0.2453094238274868 0 0.35419193461659548 0.1242932860904311 0 0.21622614199724011 0.1170905489967794 0 0.35419193461659548 0.1242932860904311 0 0.28571428571359381 0 0 0.21622614199724011 0.1170905489967794 0 0.35419193461659548 0.1242932860904311 0 0.28571428571359381 0 0 0.42857142857032021 0 0 0.14285714285686729 0 0 0.28571428571359381 0 0 0.21622614199724011 0.1170905489967794 0 0.091975849439628388 0.63906079561326345 0 0.21183497469564019 0.63320029487793694 0 0.12868163055416221 0.76697400229767487 0 0 0.71428571428496201 0 0.091975849439628388 0.63906079561326345 0 0.12868163055416221 0.76697400229767487 0 0.091975849439628388 0.63906079561326345 0 0 0.57142857142744297 0 0.12654278762846541 0.50182270069242174 0 0 0.71428571428496201 0 0.091975849439628388 0.63906079561326345 0 0 0.57142857142744297 0 0.091975849439628388 0.63906079561326345 0 0.12654278762846541 0.50182270069242174 0 0.21183497469564019 0.63320029487793694 0 0 0.57142857142744297 0 0.12654278762846541 0.50182270069242174 0 0 0.42857142857032021 0 0.093737460955887239 0.36334567880837831 0 0.12654278762846541 0.50182270069242174 0 0 0.42857142857032021 0 0.093737460955887239 0.36334567880837831 0 0.21341038379882901 0.37169997079090128 0 0.12654278762846541 0.50182270069242174 0 0.21341038379882901 0.37169997079090128 0 0.12654278762846541 0.50182270069242174 0 0.28571428571288859 0.50512834069527579 0 0.35714458040172548 0.37949340689832922 0 0.28571428571288859 0.50512834069527579 0 0.42857911129460902 0.5051327763182708 0 0.21341038379882901 0.37169997079090128 0 0.35714458040172548 0.37949340689832922 0 0.28571428571288859 0.50512834069527579 0 0.28571428571288859 0.50512834069527579 0 0.35657912408519199 0.6297632267709089 0 0.42857911129460902 0.5051327763182708 0 0.12654278762846541 0.50182270069242174 0 0.28571428571288859 0.50512834069527579 0 0.21183497469564019 0.63320029487793694 0 0.28571428571288859 0.50512834069527579 0 0.21183497469564019 0.63320029487793694 0 0.35657912408519199 0.6297632267709089 0 0.35657912408519199 0.6297632267709089 0 0.42876602422768972 0.75267652020288756 0 0.28454251053718921 0.75357332720455328 0 0.21183497469564019 0.63320029487793694 0 0.35657912408519199 0.6297632267709089 0 0.28454251053718921 0.75357332720455328 0 0.21183497469564019 0.63320029487793694 0 0.28454251053718921 0.75357332720455328 0 0.12868163055416221 0.76697400229767487 0 0.50003783804313584 0.62886810132652948 0 0.57146100403685018 0.75258289532342593 0 0.42876602422768972 0.75267652020288756 0 0.35657912408519199 0.6297632267709089 0 0.50003783804313584 0.62886810132652948 0 0.42876602422768972 0.75267652020288756 0 0.35657912408519199 0.6297632267709089 0 0.50003783804313584 0.62886810132652948 0 0.42857911129460902 0.5051327763182708 0 0.50003783804313584 0.62886810132652948 0 0.42857911129460902 0.5051327763182708 0 0.57143682973041188 0.50513310862866234 0 0.35714458040172548 0.37949340689832922 0 0.42857911129460902 0.5051327763182708 0 0.50000265683637624 0.3797679478844822 0 0.42857911129460902 0.5051327763182708 0 0.50000265683637624 0.3797679478844822 0 0.57143682973041188 0.50513310862866234 0 0.6428589620457259 0.38113747419351418 0 0.71689882325258081 0.50562151542895928 0 0.57143682973041188 0.50513310862866234 0 0.50000265683637624 0.3797679478844822 0 0.6428589620457259 0.38113747419351418 0 0.57143682973041188 0.50513310862866234 0 0.6428589620457259 0.38113747419351418 0 0.71689882325258081 0.50562151542895928 0 0.78571428571267199 0.38141042586853341 0 0.71689882325258081 0.50562151542895928 0 0.57143682973041188 0.50513310862866234 0 0.6428688546313952 0.62885301731806609 0 0.50003783804313584 0.62886810132652948 0 0.57143682973041188 0.50513310862866234 0 0.6428688546313952 0.62885301731806609 0 0.71689882325258081 0.50562151542895928 0 0.6428688546313952 0.62885301731806609 0 0.7865654166374938 0.63474444568669874 0 0.6428688546313952 0.62885301731806609 0 0.7865654166374938 0.63474444568669874 0 0.71537080136980369 0.7565812122385458 0 0.50003783804313584 0.62886810132652948 0 0.6428688546313952 0.62885301731806609 0 0.57146100403685018 0.75258289532342593 0 0.6428688546313952 0.62885301731806609 0 0.57146100403685018 0.75258289532342593 0 0.71537080136980369 0.7565812122385458 0 0.49927531931040692 0.1259400136946118 0 0.42857142857032021 0 0 0.57142857142744297 0 0 0.35419193461659548 0.1242932860904311 0 0.49927531931040692 0.1259400136946118 0 0.42857142857032021 0 0 0.35419193461659548 0.1242932860904311 0 0.49927531931040692 0.1259400136946118 0 0.42857142856968189 0.24782843958009351 0 0.35714458040172548 0.37949340689832922 0 0.50000265683637624 0.3797679478844822 0 0.42857142856968189 0.24782843958009351 0 0.50000265683637624 0.3797679478844822 0 0.42857142856968189 0.24782843958009351 0 0.57134283277699616 0.25528695228377429 0 0.49927531931040692 0.1259400136946118 0 0.42857142856968189 0.24782843958009351 0 0.57134283277699616 0.25528695228377429 0 0.57134283277699616 0.25528695228377429 0 0.71335089116972128 0.25578338314493299 0 0.64223892332544308 0.130274960827549 0 0.6428589620457259 0.38113747419351418 0 0.57134283277699616 0.25528695228377429 0 0.71335089116972128 0.25578338314493299 0 0.50000265683637624 0.3797679478844822 0 0.6428589620457259 0.38113747419351418 0 0.57134283277699616 0.25528695228377429 0 0.6428589620457259 0.38113747419351418 0 0.71335089116972128 0.25578338314493299 0 0.78571428571267199 0.38141042586853341 0 0.71335089116972128 0.25578338314493299 0 0.64223892332544308 0.130274960827549 0 0.78018926648548503 0.12559094919453551 0 0.49927531931040692 0.1259400136946118 0 0.57134283277699616 0.25528695228377429 0 0.64223892332544308 0.130274960827549 0 0.64223892332544308 0.130274960827549 0 0.57142857142744297 0 0 0.71428571428496201 0 0 0.49927531931040692 0.1259400136946118 0 0.64223892332544308 0.130274960827549 0 0.57142857142744297 0 0 0.64223892332544308 0.130274960827549 0 0.71428571428496201 0 0 0.78018926648548503 0.12559094919453551 0 0.71428571428496201 0 0 0.78018926648548503 0.12559094919453551 0 0.85714285714248095 0 0 0.78018926648548503 0.12559094919453551 0 0.89542131320406015 0.10457868679576519 0 0.86802342313663505 0.2373869704637242 0 0.89542131320406015 0.10457868679576519 0 1 0.14285714285686729 0 0.86802342313663505 0.2373869704637242 0 0.89542131320406015 0.10457868679576519 0 0.85714285714248095 0 0 1 0 0 0.78018926648548503 0.12559094919453551 0 0.89542131320406015 0.10457868679576519 0 0.85714285714248095 0 0 0.89542131320406015 0.10457868679576519 0 1 0 0 1 0.14285714285686729 0 1 0.14285714285686729 0 1.1045786867956009 0.1045786867955263 0 1.11654878083672 0.2171580770020253 0 1 0 0 1 0.14285714285686729 0 1.1045786867956009 0.1045786867955263 0 1 0 0 1.1045786867956009 0.1045786867955263 0 1.142857142857143 0 0 1.120408926261548 0.35723491808527941 0 1 0.28571428571359381 0 1 0.42857142857032021 0 1.120408926261548 0.35723491808527941 0 1.11654878083672 0.2171580770020253 0 1 0.28571428571359381 0 1 0.14285714285686729 0 1.11654878083672 0.2171580770020253 0 1 0.28571428571359381 0 1 0.14285714285686729 0 1 0.28571428571359381 0 0.86802342313663505 0.2373869704637242 0 1 0.28571428571359381 0 0.90513725992141869 0.36710674629889062 0 1 0.42857142857032021 0 1 0.28571428571359381 0 0.90513725992141869 0.36710674629889062 0 0.86802342313663505 0.2373869704637242 0 0.90513725992141869 0.36710674629889062 0 0.86802342313663505 0.2373869704637242 0 0.78571428571267199 0.38141042586853341 0 0.71335089116972128 0.25578338314493299 0 0.78018926648548503 0.12559094919453551 0 0.86802342313663505 0.2373869704637242 0 0.71335089116972128 0.25578338314493299 0 0.86802342313663505 0.2373869704637242 0 0.78571428571267199 0.38141042586853341 0 0.71689882325258081 0.50562151542895928 0 0.78571428571267199 0.38141042586853341 0 0.87194859075778619 0.50245062087828152 0 0.71689882325258081 0.50562151542895928 0 0.87194859075778619 0.50245062087828152 0 0.7865654166374938 0.63474444568669874 0 0.90513725992141869 0.36710674629889062 0 0.87194859075778619 0.50245062087828152 0 1 0.42857142857032021 0 0.90513725992141869 0.36710674629889062 0 0.78571428571267199 0.38141042586853341 0 0.8719485907
[...]
<PointData Scalars="" Vectors="displacement," Tensors="">
<DataArray type="Float64" Name="displacement" NumberOfComponents="3" format="ascii">
7.198678932578545e-05 -3.1263822583042453e-07 0 0.14283483928500937 -3.3082298618239781e-06 0 0.10085682305357981 -0.0012359743618489648 0 7.198678932578545e-05 -3.1263822583042453e-07 0 0.10085682305357981 -0.0012359743618489648 0 0.00015549446043321179 -2.2380678241197785e-06 0 0.14283483928500937 -3.3082298618239781e-06 0 0.10085682305357981 -0.0012359743618489648 0 0.20867996341936768 -0.0020556942676858156 0 0.10085682305357981 -0.0012359743618489648 0 0.12108862784433319 -0.0017155993712258573 0 0.20867996341936768 -0.0020556942676858156 0 0.10085682305357981 -0.0012359743618489648 0 0.00015549446043321179 -2.2380678241197785e-06 0 0.12108862784433319 -0.0017155993712258573 0 0.00015549446043321179 -2.2380678241197785e-06 0 0.00012780865528288097 -1.0134549139592578e-06 0 0.12108862784433319 -0.0017155993712258573 0 0.08611094803595469 -0.00030967054106450929 0 0.00012780865528288097 -1.0134549139592578e-06 0 0.00013183643047997854 -4.7658667955223576e-07 0 0.08611094803595469 -0.00030967054106450929 0 0.00012780865528288097 -1.0134549139592578e-06 0 0.12108862784433319 -0.0017155993712258573 0 0.08611094803595469 -0.00030967054106450929 0 0.12108862784433319 -0.0017155993712258573 0 0.19494776749434845 -5.3509477681110181e-05 0 0.12108862784433319 -0.0017155993712258573 0 0.26265286083002254 -0.0018950573623849 0 0.20867996341936768 -0.0020556942676858156 0 0.12108862784433319 -0.0017155993712258573 0 0.19494776749434845 -5.3509477681110181e-05 0 0.26265286083002254 -0.0018950573623849 0 0.19494776749434845 -5.3509477681110181e-05 0 0.26265286083002254 -0.0018950573623849 0 0.32318358145489506 0.00088695138854981306 0 0.26265286083002254 -0.0018950573623849 0 0.32318358145489506 0.00088695138854981306 0 0.39623788752542927 -0.0020333724347600707 0 0.26265286083002254 -0.0018950573623849 0 0.34020684370940885 -0.0023934543635454569 0 0.39623788752542927 -0.0020333724347600707 0 0.26265286083002254 -0.0018950573623849 0 0.34020684370940885 -0.0023934543635454569 0 0.20867996341936768 -0.0020556942676858156 0 0.34020684370940885 -0.0023934543635454569 0 0.28571346666684255 -4.1075262153568414e-06 0 0.20867996341936768 -0.0020556942676858156 0 0.34020684370940885 -0.0023934543635454569 0 0.28571346666684255 -4.1075262153568414e-06 0 0.42855940040890705 -4.7095023167295163e-06 0 0.14283483928500937 -3.3082298618239781e-06 0 0.28571346666684255 -4.1075262153568414e-06 0 0.20867996341936768 -0.0020556942676858156 0 0.083764864906363617 0.0028008916714642573 0 0.19184277164203509 0.0060651603779313876 0 0.1185010886544912 0.0057414489265992848 0 0.00013082123078055009 2.7051669709673089e-06 0 0.083764864906363617 0.0028008916714642573 0 0.1185010886544912 0.0057414489265992848 0 0.083764864906363617 0.0028008916714642573 0 0.0001296745781906147 2.1386936271272661e-06 0 0.11492822416407107 0.0016206715395944747 0 0.00013082123078055009 2.7051669709673089e-06 0 0.083764864906363617 0.0028008916714642573 0 0.0001296745781906147 2.1386936271272661e-06 0 0.083764864906363617 0.0028008916714642573 0 0.11492822416407107 0.0016206715395944747 0 0.19184277164203509 0.0060651603779313876 0 0.0001296745781906147 2.1386936271272661e-06 0 0.11492822416407107 0.0016206715395944747 0 0.00013183643047997854 -4.7658667955223576e-07 0 0.08611094803595469 -0.00030967054106450929 0 0.11492822416407107 0.0016206715395944747 0 0.00013183643047997854 -4.7658667955223576e-07 0 0.08611094803595469 -0.00030967054106450929 0 0.19494776749434845 -5.3509477681110181e-05 0 0.11492822416407107 0.0016206715395944747 0 0.19494776749434845 -5.3509477681110181e-05 0 0.11492822416407107 0.0016206715395944747 0 0.25704358929168841 0.0040154715096498376 0 0.32318358145489506 0.00088695138854981306 0 0.25704358929168841 0.0040154715096498376 0 0.38153883873191918 0.0058274465263717396 0 0.19494776749434845 -5.3509477681110181e-05 0 0.32318358145489506 0.00088695138854981306 0 0.25704358929168841 0.0040154715096498376 0 0.25704358929168841 0.0040154715096498376 0 0.32011512734831249 0.0094531545937327124 0 0.38153883873191918 0.0058274465263717396 0 0.11492822416407107 0.0016206715395944747 0 0.25704358929168841 0.0040154715096498376 0 0.19184277164203509 0.0060651603779313876 0 0.25704358929168841 0.0040154715096498376 0 0.19184277164203509 0.0060651603779313876 0 0.32011512734831249 0.0094531545937327124 0 0.32011512734831249 0.0094531545937327124 0 0.38899857522294162 0.015436108904758094 0 0.25989870433410117 0.011160673980023317 0 0.19184277164203509 0.0060651603779313876 0 0.32011512734831249 0.0094531545937327124 0 0.25989870433410117 0.011160673980023317 0 0.19184277164203509 0.0060651603779313876 0 0.25989870433410117 0.011160673980023317 0 0.1185010886544912 0.0057414489265992848 0 0.44400209444794803 0.012018110013701259 0 0.51394001449125359 0.018256363678328204 0 0.38899857522294162 0.015436108904758094 0 0.32011512734831249 0.0094531545937327124 0 0.44400209444794803 0.012018110013701259 0 0.38899857522294162 0.015436108904758094 0 0.32011512734831249 0.0094531545937327124 0 0.44400209444794803 0.012018110013701259 0 0.38153883873191918 0.0058274465263717396 0 0.44400209444794803 0.012018110013701259 0 0.38153883873191918 0.0058274465263717396 0 0.50178024517740816 0.0068804236723698136 0 0.32318358145489506 0.00088695138854981306 0 0.38153883873191918 0.0058274465263717396 0 0.44743664306564707 0.0014259303723190976 0 0.38153883873191918 0.0058274465263717396 0 0.44743664306564707 0.0014259303723190976 0 0.50178024517740816 0.0068804236723698136 0 0.56659094607558502 0.001638035042748199 0 0.61839361549193195 0.0067365178337371609 0 0.50178024517740816 0.0068804236723698136 0 0.44743664306564707 0.0014259303723190976 0 0.56659094607558502 0.001638035042748199 0 0.50178024517740816 0.0068804236723698136 0 0.56659094607558502 0.001638035042748199 0 0.61839361549193195 0.0067365178337371609 0 0.67929501115890134 0.0023269539568165297 0 0.61839361549193195 0.0067365178337371609 0 0.50178024517740816 0.0068804236723698136 0 0.56268428651677371 0.012882572983097638 0 0.44400209444794803 0.012018110013701259 0 0.50178024517740816 0.0068804236723698136 0 0.56268428651677371 0.012882572983097638 0 0.61839361549193195 0.0067365178337371609 0 0.56268428651677371 0.012882572983097638 0 0.67628740282648581 0.010438919244944828 0 0.56268428651677371 0.012882572983097638 0 0.67628740282648581 0.010438919244944828 0 0.63605550679091727 0.018146498832484859 0 0.44400209444794803 0.012018110013701259 0 0.56268428651677371 0.012882572983097638 0 0.51394001449125359 0.018256363678328204 0 0.56268428651677371 0.012882572983097638 0 0.51394001449125359 0.018256363678328204 0 0.63605550679091727 0.018146498832484859 0 0.47720409808532266 -0.0028367342709235831 0 0.42855940040890705 -4.7095023167295163e-06 0 0.57141516216550803 -6.7245530024876042e-06 0 0.34020684370940885 -0.0023934543635454569 0 0.47720409808532266 -0.0028367342709235831 0 0.42855940040890705 -4.7095023167295163e-06 0 0.34020684370940885 -0.0023934543635454569 0 0.47720409808532266 -0.0028367342709235831 0 0.39623788752542927 -0.0020333724347600707 0 0.32318358145489506 0.00088695138854981306 0 0.44743664306564707 0.0014259303723190976 0 0.39623788752542927 -0.0020333724347600707 0 0.44743664306564707 0.0014259303723190976 0 0.39623788752542927 -0.0020333724347600707 0 0.52197979397474026 -0.0022252297523205912 0 0.47720409808532266 -0.0028367342709235831 0 0.39623788752542927 -0.0020333724347600707 0 0.52197979397474026 -0.0022252297523205912 0 0.52197979397474026 -0.0022252297523205912 0 0.64264627149093689 -0.0020724419370029413 0 0.60883339227429989 -0.0034846049570617546 0 0.56659094607558502 0.001638035042748199 0 0.52197979397474026 -0.0022252297523205912 0 0.64264627149093689 -0.0020724419370029413 0 0.44743664306564707 0.0014259303723190976 0 0.56659094607558502 0.001638035042748199 0 0.52197979397474026 -0.0022252297523205912 0 0.56659094607558502 0.001638035042748199 0 0.64264627149093689 -0.0020724419370029413 0 0.67929501115890134 0.0023269539568165297 0 0.64264627149093689 -0.0020724419370029413 0 0.60883339227429989 -0.0034846049570617546 0 0.73398052843988559 -0.0036326848829333395 0 0.47720409808532266 -0.0028367342709235831 0 0.52197979397474026 -0.0022252297523205912 0 0.60883339227429989 -0.0034846049570617546 0 0.60883339227429989 -0.0034846049570617546 0 0.57141516216550803 -6.7245530024876042e-06 0 0.71425871701950083 -5.0505577742857837e-06 0 0.47720409808532266 -0.0028367342709235831 0 0.60883339227429989 -0.0034846049570617546 0 0.57141516216550803 -6.7245530024876042e-06 0 0.60883339227429989 -0.0034846049570617546 0 0.71425871701950083 -5.0505577742857837e-06 0 0.73398052843988559 -0.0036326848829333395 0 0.71425871701950083 -5.0505577742857837e-06 0 0.73398052843988559 -0.0036326848829333395 0 0.85712791675935607 -1.8357390942629791e-05 0 0.73398052843988559 -0.0036326848829333395 0 0.84118801228191253 -0.00078131686336542017 0 0.7698586528425394 0.0011233734639622117 0 0.84118801228191253 -0.00078131686336542017 0 0.89861303490267264 0.01424410429156979 0 0.7698586528425394 0.0011233734639622117 0 0.84118801228191253 -0.00078131686336542017 0 0.85712791675935607 -1.8357390942629791e-05 0 0.99988313268131324 3.9346415967409388e-05 0 0.73398052843988559 -0.0036326848829333395 0 0.84118801228191253 -0.00078131686336542017 0 0.85712791675935607 -1.8357390942629791e-05 0 0.84118801228191253 -0.00078131686336542017 0 0.99988313268131324 3.9346415967409388e-05 0 0.89861303490267264 0.01424410429156979 0 0.89861303490267264 0.01424410429156979 0 1.0516275621089881 0.01029743363682822 0 1.0278226392295566 0.010839965781567594 0 0.99988313268131324 3.9346415967409388e-05 0 0.89861303490267264 0.01424410429156979 0 1.0516275621089881 0.01029743363682822 0 0.99988313268131324 3.9346415967409388e-05 0 1.0516275621089881 0.01029743363682822 0 1.1428389970347625 1.5163973997372949e-05 0 1.0053983403321365 0.0053016258435064287 0 0.85285770391322691 0.012331318696260992 0 0.83138206811015003 0.0062106427526138512 0 1.0053983403321365 0.0053016258435064287 0 1.0278226392295566 0.010839965781567594 0 0.85285770391322691 0.012331318696260992 0 0.89861303490267264 0.01424410429156979 0 1.0278226392295566 0.010839965781567594 0 0.85285770391322691 0.012331318696260992 0 0.89861303490267264 0.01424410429156979 0 0.85285770391322691 0.012331318696260992 0 0.7698586528425394 0.0011233734639622117 0 0.85285770391322691 0.012331318696260992 0 0.77068971417974841 0.0051149465979367465 0 0.83138206811015003 0.0062106427526138512 0 0.85285770391322691 0.012331318696260992 0 0.77068971417974841 0.0051149465979367465 0 0.7698586528425394 0.0011233734639622117 0 0.77068971417974841 0.0051149465979367465 0 0.7698586528425394 0.0011233734639622117 0 0.67929501115890134 0.0023269539568165297 0 0.64264627149093689 -0.0020724419370029413 0 0.73398052843988559 -0.0036326848829333395 0 0.7698586528425394 0.0011233734639622117 0 0.64264627149093689 -0.0020724419370029413 0 0.7698586528425394 0.0011233734639622117 0 0.67929501115890134 0.0023269539568165297 0 0.61839361549193195 0.0067365178337371609 0 0.67929501115890134 0.0023269539568165297 0 0.73546383443383456 0.0048099911497961247 0 0.61839361549193195 0.0067365178337371609 0 0.73546383443383456 0.0048099911497961247 0 0.67628740282648581 0.010438919244944828 0 0.77068971417974841 0.0051149465979367465 0 0.73546383443383456 0.0048099911497961247 0 0.83138206811015003 0.0062106427526138512 0 0.77068971417974841 0.0051149465979367465 0 0.67929501115890134 0.0023269539568165297 0 0.73546383443383456 0.0048099911497961247 0 0.67628740282648581 0.010438919244944828 0 0.76277195096683614 0.01044666376868263 0 0.63605550679091727 0.018146498832484859 0 0.73546383443383456 0.0048099911497961247 0 0.76604117434968266 0.0037960862657067931 0 0.82841871798458511 -0.00067426314013268533 0 0.73546383443383456 0.0048099911497961247 0 0.67628740282648581 0.010438919244944828 0 0.76604117434968266 0.0037960862657067931 0 0.76604117434968266 0.0037960862657067931 0 0.84437460365387973 -0.0078160320234946026 0 0.76277195096683614 0.01044666376868263 0 0.67628740282648581 0.010438919244944828 0 0.76604117434968266 0.0037960862657067931 0 0.76277195096683614 0.01044666376868263 0 0.76604117434968266 0.0037960862657067931 0 0.84437460365387973 -0.0078160320234946026 0 0.82841871798458511 -0.00067426314013268533 0 0.82841871798458511 -0.00067426314013268533 0 1.0048520484904178 -0.01346435334460783 0 0.99897629941926469 -0.0035784050506297948 0 0.84437460365387973 -0.0078160320234946026 0 0.82841871798458511 -0.00067426314013268533 0 1.0048520484904178 -0.01346435334460783 0 0.84437460365387973 -0.0078160320234946026 0 1.0048520484904178 -0.01346435334460783 0 1.0255408541956046 -0.022726519447639433 0 0.73546383443383456 0.0048099911497961247 0 0.82841871798458511 -0.00067426314013268533 0 0.83138206811015003 0.0062106427526138512 0 0.82841871798458511 -0.00067426314013268533 0 0.83138206811015003 0.0062106427526138512 0 0.99897629941926469 -0.0035784050506297948 0 1.0053983403321365 0.0053016258435064287 0 0.83138206811015003 0.0062106427526138512 0 0.99897629941926469 -0.0035784050506297948 0 1.0053983403321365 0.0053016258435064287 0 0.99897629941926469 -0.0035784050506297948 0 1.1635392313409116 -0.0029279866454356108 0 0.99897629941926469 -0.0035784050506297948 0 1.1635392313409116 -0.0029279866454356108 0 1.1678238844623512 -0.014824638563730933 0 1.1635392313409116 -0.0029279866454356108 0 1.1678238844623512 -0.014824638563730933 0 1.3286241634237053 -0.011901852562443799 0 1.0048520484904178 -0.01346435334460783 0 1.1781612246355033 -0.02703477825600404 0 1.0255408541956046 -0.022726519447639433 0 1.0048520484904178 -0.01346435334460783 0 0.99897629941926469 -0.0035784050506297948 0 1.1678238844623512 -0.014824638563730933 0 1.0048520484904178 -0.01346435334460783 0 1.1678238844623512 -0.014824638563730933 0 1.1781612246355033 -0.02703477825600404 0 1.1678238844623512 -0.014824638563730933 0 1.1781612246355033 -0.02703477825600404 0 1.3334257457732903 -0.025596334696266061 0 1.1781612246355033 -0.02703477825600404 0 1.3334257457732903 -0.025596334696266061 0 1.3415602419740369 -0.037796059126179782 0 1.1678238844623512 -0.014824638563730933 0 1.3334257457732903 -0.025596334696266061 0 1.3286241634237053 -0.011901852562443799 0 1.3334257457732903 -0.025596334696266061 0 1.4928317265079358 -0.020179643592887868 0 1.4935816683310237 -0.033694856002430329 0 1.3334257457732903 -0.025596334696266061 0 1.4928317265079358 -0.020179643592887868 0 1.3286241634237053 -0.011901852562443799 0 1.3334257457732903 -0.025596334696266061 0 1.4935816683310237 -0.033694856002430329 0 1.3415602419740369 -0.037796059126179782 0 1.1635392313409116 -0.0029279866454356108 0 1.3286241634237053 -0.011901852562443799 0 1.328412423962779 -0.0001864831028588429 0 1.4928317265079358 -0.020179643592887868 0 1.3286241634237053 -0.011901852562443799 0 1.4912169727452098 -0.006723029143228536 0 1.3286241634237053 -0.011901852562443799 0 1.4912169727452098 -0.006723029143228536 0 1.328412423962779 -0.0001864831028588429 0 1.4912169727452098 -0.006723029143228536 0 1.328412423962779 -0.0001864831028588429 0 1.4933396322241472 0.0034111946522727707 0 1.328412423962779 -0.0001864831028588429 0 1.3355742347140569 0.0067660703311586412 0 1.172942337540299 0.00602971049240525 0 1.3355742347140569 0.0067660703311586412 0 1.4933396322241472 0.0034111946522727707 0 1.498022965570138 0.006580650191543253 0 1.328412423962779 -0.0001864831028588429 0 1.3355742347140569 0.0067660703311586412 0 1.4933396322241472 0.0034111946522727707 0 1.498022965570138 0.006580650191543253 0 1.4285619589823533 1.1983237079894909e-05 0 1.3433470863411023 0.0054722813740536308 0 1.498022965570138 0.006580650191543253 0 1.4285619589823533 1.1983237079894909e-05 0 1.5714376837923245 1.1532767010325268e-05 0 1.4285619589823533 1.1983237079894909e-05 0 1.3433470863411023 0.0054722813740536308 0 1.2856981511441676 1.3346833786173539e-05 0 1.3355742347140569 0.0067660703311586412 0 1.3433470863411023 0.0054722813740536308 0 1.1913081912858088 0.0092199616603383348 0 1.3355742347140569 0.0067660703311586412 0 1.498022965570138 0.006580650191543253 0 1.3433470863411023 0.0054722813740536308 0 1.1913081912858088 0.0092199616603383348 0 1.2856981511441676 1.3346833786173539e-05 0 1.1428389970347625 1.5163973997372949e-05 0 1.3433470863411023 0.0054722813740536308 0 1.1913081912858088 0.0092199616603383348 0 1.2856981511441676 1.3346833786173539e-05 0 1.0516275621089881 0.01029743363682822 0 1.1913081912858088 0.0092199616603383348 0 1.1428389970347625 1.5163973997372949e-05 0 1.0516275621089881 0.01029743363682822 0 1.0278226392295566 0.010839965781567594 0 1.1913081912858088 0.0092199616603383348 0 1.0278226392295566 0.010839965781567594 0 1.1913081912858088 0.0092199616603383348 0 1.172942337540299 0.00602971049240525 0 1.0053983403321365 0.0053016258435064287 0 1.1635392313409116 -0.0029279866454356108 0 1.172942337540299 0.00602971049240525 0 1.0053983403321365 0.0053016258435064287 0 1.0278226392295566 0.010839965781567594 0 1.172942337540299 0.00602971049240525 0 1.1635392313409116 -0.0029279866454356108 0 1.328412423962779 -0.0001864831028588429 0 1.172942337540299 0.00602971049240525 0 1.3355742347140569 0.0067660703311586412 0 1.1913081912858088 0.0092199616603383348 0 1.172942337540299 0.00602971049240525 0 1.33232989747967 -0.026080237028710939 0 1.375640917555347 -0.037486545881559835 0 1.2546362595651683 -0.033837156962247733 0 1.33232989747967 -0.026080237028710939 0 1.2161529851281681 -0.018587817991557655 0 1.2546362595651683 -0.033837156962247733 0 1.2161529851281681 -0.018587817991557655 0 1.2546362595651683 -0.033837156962247733 0 1.1542370877284951 -0.024499633861591315 0 1.33232989747967 -0.026080237028710939 0 1.2161529851281681 -0.018587817991557655 0 1.2953861848352604 -0.011143325262911048 0 1.2161529851281681 -0.018587817991557655 0 1.2953861848352604 -0.011143325262911048 0 1.2120766930627684 -0.0068660958436734549 0 1.2953861848352604 -0.011143325262911048 0 1.2402716503390574 1.4981200928796511e-05 0 1.3486205983019106 0.00057991348024671169 0 1.2953861848352604 -0.011143325262911048 0 1.2120766930627684 -0.0068660958436734549 0 1.2402716503390574 1.4981200928796511e-05 0 1.2953861848352604 -0.011143325262911048 0 1.3952783999206748 -0.014112000622051578 0 1.3486205983019106 0.00057991348024671169 0 1.33232989747967 -0.026080237028710939 0 1.2953861848352604 -0.011143325262911048 0 1.3952783999206748 -0.014112000622051578 0 1.3952783999206748 -0.014112000622051578 0 1.3486205983019106 0.00057991348024671169 0 1.4491553352389948 0.00063371674889317858 0 1.3952783999206748 -0.014112000622051578 0 1.5000200041034211 -0.014707277005580372 0 1.4491553352389948 0.00063371674889317858 0 1.3952783999206748 -0.014112000622051578 0 1.5000200041034211 -0.014707277005580372 0 1.4427823028365816 -0.02828519882249627 0 1.5000200041034211 -0.014707277005580372 0 1.4427823028365816 -0.02828519882249627 0 1.5556586400395218 -0.028225470298951026 0 1.33232989747967 -0.026080237028710939 0 1.3952783999206748 -0.014112000622051578 0 1.4427823028365816 -0.02828519882249627 0 1.33232989747967 -0.026080237028710939 0 1.4427823028365816 -0.02828519882249627 0 1.375640917555347 -0.037486545881559835 0 1.4427823028365816 -0.02828519882249627 0 1.5000102543527569 -0.038882380433964706 0 1.5556586400395218 -0.028225470298951026 0 1.4427823028365816 -0.02828519882249627 0 1.375640917555347 -0.037486545881559835 0 1.5000102543527569 -0.038882380433964706 0 1.5000102543527569 -0.038882380433964706 0 1.4302988114047601 -0.043572947348666256 0 1.5698036159838495 -0.043540703085849043 0 1.375640917555347 -0.037486545881559835 0 1.5000102543527569 -0.038882380433964706 0 1.4302988114047601 -0.043572947