<?xml version="1.0"?>
<VTKFile type="UnstructuredGrid" version="0.1" byte_order="LittleEndian">
<UnstructuredGrid>
<Piece NumberOfPoints="3186" NumberOfCells="1062">
<Points>
<DataArray type="Float64" NumberOfComponents="3" format="ascii">
0 0 0 0.14285714285686729 0 0 0.10402057578810379 0.10402057578810379 0 0 0 0 0.10402057578810379 0.10402057578810379 0 0 0.14285714285686729 0 0.14285714285686729 0 0 0.10402057578810379 0.10402057578810379 0 0.21622614199724011 0.1170905489967794 0 0.10402057578810379 0.10402057578810379 0 0.12873413335214179 0.22892000827465461 0 0.21622614199724011 0.1170905489967794 0 0.10402057578810379 0.10402057578810379 0 0 0.14285714285686729 0 0.12873413335214179 0.22892000827465461 0 0 0.14285714285686729 0 0 0.28571428571359381 0 0.12873413335214179 0.22892000827465461 0 0.093737460955887239 0.36334567880837831 0 0 0.28571428571359381 0 0 0.42857142857032021 0 0.093737460955887239 0.36334567880837831 0 0 0.28571428571359381 0 0.12873413335214179 0.22892000827465461 0 0.093737460955887239 0.36334567880837831 0 0.12873413335214179 0.22892000827465461 0 0.21341038379882901 0.37169997079090128 0 0.12873413335214179 0.22892000827465461 0 0.28183877965613813 0.2453094238274868 0 0.21622614199724011 0.1170905489967794 0 0.12873413335214179 0.22892000827465461 0 0.21341038379882901 0.37169997079090128 0 0.28183877965613813 0.2453094238274868 0 0.21341038379882901 0.37169997079090128 0 0.28183877965613813 0.2453094238274868 0 0.35714458040172548 0.37949340689832922 0 0.28183877965613813 0.2453094238274868 0 0.35714458040172548 0.37949340689832922 0 0.42857142856968189 0.24782843958009351 0 0.28183877965613813 0.2453094238274868 0 0.35419193461659548 0.1242932860904311 0 0.42857142856968189 0.24782843958009351 0 0.28183877965613813 0.2453094238274868 0 0.35419193461659548 0.1242932860904311 0 0.21622614199724011 0.1170905489967794 0 0.35419193461659548 0.1242932860904311 0 0.28571428571359381 0 0 0.21622614199724011 0.1170905489967794 0 0.35419193461659548 0.1242932860904311 0 0.28571428571359381 0 0 0.42857142857032021 0 0 0.14285714285686729 0 0 0.28571428571359381 0 0 0.21622614199724011 0.1170905489967794 0 0.091975849439628388 0.63906079561326345 0 0.21183497469564019 0.63320029487793694 0 0.12868163055416221 0.76697400229767487 0 0 0.71428571428496201 0 0.091975849439628388 0.63906079561326345 0 0.12868163055416221 0.76697400229767487 0 0.091975849439628388 0.63906079561326345 0 0 0.57142857142744297 0 0.12654278762846541 0.50182270069242174 0 0 0.71428571428496201 0 0.091975849439628388 0.63906079561326345 0 0 0.57142857142744297 0 0.091975849439628388 0.63906079561326345 0 0.12654278762846541 0.50182270069242174 0 0.21183497469564019 0.63320029487793694 0 0 0.57142857142744297 0 0.12654278762846541 0.50182270069242174 0 0 0.42857142857032021 0 0.093737460955887239 0.36334567880837831 0 0.12654278762846541 0.50182270069242174 0 0 0.42857142857032021 0 0.093737460955887239 0.36334567880837831 0 0.21341038379882901 0.37169997079090128 0 0.12654278762846541 0.50182270069242174 0 0.21341038379882901 0.37169997079090128 0 0.12654278762846541 0.50182270069242174 0 0.28571428571288859 0.50512834069527579 0 0.35714458040172548 0.37949340689832922 0 0.28571428571288859 0.50512834069527579 0 0.42857911129460902 0.5051327763182708 0 0.21341038379882901 0.37169997079090128 0 0.35714458040172548 0.37949340689832922 0 0.28571428571288859 0.50512834069527579 0 0.28571428571288859 0.50512834069527579 0 0.35657912408519199 0.6297632267709089 0 0.42857911129460902 0.5051327763182708 0 0.12654278762846541 0.50182270069242174 0 0.28571428571288859 0.50512834069527579 0 0.21183497469564019 0.63320029487793694 0 0.28571428571288859 0.50512834069527579 0 0.21183497469564019 0.63320029487793694 0 0.35657912408519199 0.6297632267709089 0 0.35657912408519199 0.6297632267709089 0 0.42876602422768972 0.75267652020288756 0 0.28454251053718921 0.75357332720455328 0 0.21183497469564019 0.63320029487793694 0 0.35657912408519199 0.6297632267709089 0 0.28454251053718921 0.75357332720455328 0 0.21183497469564019 0.63320029487793694 0 0.28454251053718921 0.75357332720455328 0 0.12868163055416221 0.76697400229767487 0 0.50003783804313584 0.62886810132652948 0 0.57146100403685018 0.75258289532342593 0 0.42876602422768972 0.75267652020288756 0 0.35657912408519199 0.6297632267709089 0 0.50003783804313584 0.62886810132652948 0 0.42876602422768972 0.75267652020288756 0 0.35657912408519199 0.6297632267709089 0 0.50003783804313584 0.62886810132652948 0 0.42857911129460902 0.5051327763182708 0 0.50003783804313584 0.62886810132652948 0 0.42857911129460902 0.5051327763182708 0 0.57143682973041188 0.50513310862866234 0 0.35714458040172548 0.37949340689832922 0 0.42857911129460902 0.5051327763182708 0 0.50000265683637624 0.3797679478844822 0 0.42857911129460902 0.5051327763182708 0 0.50000265683637624 0.3797679478844822 0 0.57143682973041188 0.50513310862866234 0 0.6428589620457259 0.38113747419351418 0 0.71689882325258081 0.50562151542895928 0 0.57143682973041188 0.50513310862866234 0 0.50000265683637624 0.3797679478844822 0 0.6428589620457259 0.38113747419351418 0 0.57143682973041188 0.50513310862866234 0 0.6428589620457259 0.38113747419351418 0 0.71689882325258081 0.50562151542895928 0 0.78571428571267199 0.38141042586853341 0 0.71689882325258081 0.50562151542895928 0 0.57143682973041188 0.50513310862866234 0 0.6428688546313952 0.62885301731806609 0 0.50003783804313584 0.62886810132652948 0 0.57143682973041188 0.50513310862866234 0 0.6428688546313952 0.62885301731806609 0 0.71689882325258081 0.50562151542895928 0 0.6428688546313952 0.62885301731806609 0 0.7865654166374938 0.63474444568669874 0 0.6428688546313952 0.62885301731806609 0 0.7865654166374938 0.63474444568669874 0 0.71537080136980369 0.7565812122385458 0 0.50003783804313584 0.62886810132652948 0 0.6428688546313952 0.62885301731806609 0 0.57146100403685018 0.75258289532342593 0 0.6428688546313952 0.62885301731806609 0 0.57146100403685018 0.75258289532342593 0 0.71537080136980369 0.7565812122385458 0 0.49927531931040692 0.1259400136946118 0 0.42857142857032021 0 0 0.57142857142744297 0 0 0.35419193461659548 0.1242932860904311 0 0.49927531931040692 0.1259400136946118 0 0.42857142857032021 0 0 0.35419193461659548 0.1242932860904311 0 0.49927531931040692 0.1259400136946118 0 0.42857142856968189 0.24782843958009351 0 0.35714458040172548 0.37949340689832922 0 0.50000265683637624 0.3797679478844822 0 0.42857142856968189 0.24782843958009351 0 0.50000265683637624 0.3797679478844822 0 0.42857142856968189 0.24782843958009351 0 0.57134283277699616 0.25528695228377429 0 0.49927531931040692 0.1259400136946118 0 0.42857142856968189 0.24782843958009351 0 0.57134283277699616 0.25528695228377429 0 0.57134283277699616 0.25528695228377429 0 0.71335089116972128 0.25578338314493299 0 0.64223892332544308 0.130274960827549 0 0.6428589620457259 0.38113747419351418 0 0.57134283277699616 0.25528695228377429 0 0.71335089116972128 0.25578338314493299 0 0.50000265683637624 0.3797679478844822 0 0.6428589620457259 0.38113747419351418 0 0.57134283277699616 0.25528695228377429 0 0.6428589620457259 0.38113747419351418 0 0.71335089116972128 0.25578338314493299 0 0.78571428571267199 0.38141042586853341 0 0.71335089116972128 0.25578338314493299 0 0.64223892332544308 0.130274960827549 0 0.78018926648548503 0.12559094919453551 0 0.49927531931040692 0.1259400136946118 0 0.57134283277699616 0.25528695228377429 0 0.64223892332544308 0.130274960827549 0 0.64223892332544308 0.130274960827549 0 0.57142857142744297 0 0 0.71428571428496201 0 0 0.49927531931040692 0.1259400136946118 0 0.64223892332544308 0.130274960827549 0 0.57142857142744297 0 0 0.64223892332544308 0.130274960827549 0 0.71428571428496201 0 0 0.78018926648548503 0.12559094919453551 0 0.71428571428496201 0 0 0.78018926648548503 0.12559094919453551 0 0.85714285714248095 0 0 0.78018926648548503 0.12559094919453551 0 0.89542131320406015 0.10457868679576519 0 0.86802342313663505 0.2373869704637242 0 0.89542131320406015 0.10457868679576519 0 1 0.14285714285686729 0 0.86802342313663505 0.2373869704637242 0 0.89542131320406015 0.10457868679576519 0 0.85714285714248095 0 0 1 0 0 0.78018926648548503 0.12559094919453551 0 0.89542131320406015 0.10457868679576519 0 0.85714285714248095 0 0 0.89542131320406015 0.10457868679576519 0 1 0 0 1 0.14285714285686729 0 1 0.14285714285686729 0 1.1045786867956009 0.1045786867955263 0 1.11654878083672 0.2171580770020253 0 1 0 0 1 0.14285714285686729 0 1.1045786867956009 0.1045786867955263 0 1 0 0 1.1045786867956009 0.1045786867955263 0 1.142857142857143 0 0 1.120408926261548 0.35723491808527941 0 1 0.28571428571359381 0 1 0.42857142857032021 0 1.120408926261548 0.35723491808527941 0 1.11654878083672 0.2171580770020253 0 1 0.28571428571359381 0 1 0.14285714285686729 0 1.11654878083672 0.2171580770020253 0 1 0.28571428571359381 0 1 0.14285714285686729 0 1 0.28571428571359381 0 0.86802342313663505 0.2373869704637242 0 1 0.28571428571359381 0 0.90513725992141869 0.36710674629889062 0 1 0.42857142857032021 0 1 0.28571428571359381 0 0.90513725992141869 0.36710674629889062 0 0.86802342313663505 0.2373869704637242 0 0.90513725992141869 0.36710674629889062 0 0.86802342313663505 0.2373869704637242 0 0.78571428571267199 0.38141042586853341 0 0.71335089116972128 0.25578338314493299 0 0.78018926648548503 0.12559094919453551 0 0.86802342313663505 0.2373869704637242 0 0.71335089116972128 0.25578338314493299 0 0.86802342313663505 0.2373869704637242 0 0.78571428571267199 0.38141042586853341 0 0.71689882325258081 0.50562151542895928 0 0.78571428571267199 0.38141042586853341 0 0.87194859075778619 0.50245062087828152 0 0.71689882325258081 0.50562151542895928 0 0.87194859075778619 0.50245062087828152 0 0.7865654166374938 0.63474444568669874 0 0.90513725992141869 0.36710674629889062 0 0.87194859075778619 0.50245062087828152 0 1 0.42857142857032021 0 0.90513725992141869 0.36710674629889062 0 0.78571428571267199 0.38141042586853341 0 0.8719485907
[...]
<PointData Scalars="" Vectors="displacement," Tensors="">
<DataArray type="Float64" Name="displacement" NumberOfComponents="3" format="ascii">
7.1491454503573297e-05 7.1454538492019717e-05 0 0.00015942422851516878 0.14283361345094567 0 0.10202217414503444 0.10200145733652835 0 7.1491454503573297e-05 7.1454538492019717e-05 0 0.10202217414503444 0.10200145733652835 0 0.14283370565048475 0.00015966116061751388 0 0.00015942422851516878 0.14283361345094567 0 0.10202217414503444 0.10200145733652835 0 0.11294736657446446 0.21224116181984565 0 0.10202217414503444 0.10200145733652835 0 0.22443915813132922 0.12401570133269266 0 0.11294736657446446 0.21224116181984565 0 0.10202217414503444 0.10200145733652835 0 0.14283370565048475 0.00015966116061751388 0 0.22443915813132922 0.12401570133269266 0 0.14283370565048475 0.00015966116061751388 0 0.28571303995429392 0.00013357202749891169 0 0.22443915813132922 0.12401570133269266 0 0.35861012525236657 0.088506348729109646 0 0.28571303995429392 0.00013357202749891169 0 0.42856099280639787 0.00013973030600632295 0 0.35861012525236657 0.088506348729109646 0 0.28571303995429392 0.00013357202749891169 0 0.22443915813132922 0.12401570133269266 0 0.35861012525236657 0.088506348729109646 0 0.22443915813132922 0.12401570133269266 0 0.36160189396026399 0.20290962827847608 0 0.22443915813132922 0.12401570133269266 0 0.23615942799010162 0.27276576675925107 0 0.11294736657446446 0.21224116181984565 0 0.22443915813132922 0.12401570133269266 0 0.36160189396026399 0.20290962827847608 0 0.23615942799010162 0.27276576675925107 0 0.36160189396026399 0.20290962827847608 0 0.23615942799010162 0.27276576675925107 0 0.36411854184599962 0.34186643761499136 0 0.23615942799010162 0.27276576675925107 0 0.36411854184599962 0.34186643761499136 0 0.23483053668802142 0.41542673519942597 0 0.23615942799010162 0.27276576675925107 0 0.11772094274111655 0.3481393992741641 0 0.23483053668802142 0.41542673519942597 0 0.23615942799010162 0.27276576675925107 0 0.11772094274111655 0.3481393992741641 0 0.11294736657446446 0.21224116181984565 0 0.11772094274111655 0.3481393992741641 0 0.000134258679289284 0.2857132210786465 0 0.11294736657446446 0.21224116181984565 0 0.11772094274111655 0.3481393992741641 0 0.000134258679289284 0.2857132210786465 0 0.00013896101474236811 0.42856062444865861 0 0.00015942422851516878 0.14283361345094567 0 0.000134258679289284 0.2857132210786465 0 0.11294736657446446 0.21224116181984565 0 0.62808845608103903 0.082297407588834678 0 0.61062009097577463 0.19506220737313154 0 0.74089911464067049 0.11261306455277843 0 0.71425785985545109 0.00013406545478724706 0 0.62808845608103903 0.082297407588834678 0 0.74089911464067049 0.11261306455277843 0 0.62808845608103903 0.082297407588834678 0 0.57141626141534752 0.00013362393681812238 0 0.49262002668583721 0.11689753268704779 0 0.71425785985545109 0.00013406545478724706 0 0.62808845608103903 0.082297407588834678 0 0.57141626141534752 0.00013362393681812238 0 0.62808845608103903 0.082297407588834678 0 0.49262002668583721 0.11689753268704779 0 0.61062009097577463 0.19506220737313154 0 0.57141626141534752 0.00013362393681812238 0 0.49262002668583721 0.11689753268704779 0 0.42856099280639787 0.00013973030600632295 0 0.35861012525236657 0.088506348729109646 0 0.49262002668583721 0.11689753268704779 0 0.42856099280639787 0.00013973030600632295 0 0.35861012525236657 0.088506348729109646 0 0.36160189396026399 0.20290962827847608 0 0.49262002668583721 0.11689753268704779 0 0.36160189396026399 0.20290962827847608 0 0.49262002668583721 0.11689753268704779 0 0.48684553962897836 0.26943547300945997 0 0.36411854184599962 0.34186643761499136 0 0.48684553962897836 0.26943547300945997 0 0.48165359740752201 0.40768387700184355 0 0.36160189396026399 0.20290962827847608 0 0.36411854184599962 0.34186643761499136 0 0.48684553962897836 0.26943547300945997 0 0.48684553962897836 0.26943547300945997 0 0.59733877279004477 0.33617002037839899 0 0.48165359740752201 0.40768387700184355 0 0.49262002668583721 0.11689753268704779 0 0.48684553962897836 0.26943547300945997 0 0.61062009097577463 0.19506220737313154 0 0.48684553962897836 0.26943547300945997 0 0.61062009097577463 0.19506220737313154 0 0.59733877279004477 0.33617002037839899 0 0.59733877279004477 0.33617002037839899 0 0.69486068266449674 0.40702086343110999 0 0.70654130942850579 0.26453956519419908 0 0.61062009097577463 0.19506220737313154 0 0.59733877279004477 0.33617002037839899 0 0.70654130942850579 0.26453956519419908 0 0.61062009097577463 0.19506220737313154 0 0.70654130942850579 0.26453956519419908 0 0.74089911464067049 0.11261306455277843 0 0.59236398180897798 0.47506769777125579 0 0.69476865134717358 0.54489658057314094 0 0.69486068266449674 0.40702086343110999 0 0.59733877279004477 0.33617002037839899 0 0.59236398180897798 0.47506769777125579 0 0.69486068266449674 0.40702086343110999 0 0.59733877279004477 0.33617002037839899 0 0.59236398180897798 0.47506769777125579 0 0.48165359740752201 0.40768387700184355 0 0.59236398180897798 0.47506769777125579 0 0.48165359740752201 0.40768387700184355 0 0.47964286010066043 0.54165074398330759 0 0.36411854184599962 0.34186643761499136 0 0.48165359740752201 0.40768387700184355 0 0.36075350001878953 0.47848224533763051 0 0.48165359740752201 0.40768387700184355 0 0.36075350001878953 0.47848224533763051 0 0.47964286010066043 0.54165074398330759 0 0.36006322108913613 0.60785821303245724 0 0.48123006203467378 0.66613062085693764 0 0.47964286010066043 0.54165074398330759 0 0.36075350001878953 0.47848224533763051 0 0.36006322108913613 0.60785821303245724 0 0.47964286010066043 0.54165074398330759 0 0.36006322108913613 0.60785821303245724 0 0.48123006203467378 0.66613062085693764 0 0.3605757192641833 0.72129784519560269 0 0.48123006203467378 0.66613062085693764 0 0.47964286010066043 0.54165074398330759 0 0.59419798201331608 0.60638468821772573 0 0.59236398180897798 0.47506769777125579 0 0.47964286010066043 0.54165074398330759 0 0.59419798201331608 0.60638468821772573 0 0.48123006203467378 0.66613062085693764 0 0.59419798201331608 0.60638468821772573 0 0.60572045795676621 0.72345140234717076 0 0.59419798201331608 0.60638468821772573 0 0.60572045795676621 0.72345140234717076 0 0.70761063098107846 0.67651765505752492 0 0.59236398180897798 0.47506769777125579 0 0.59419798201331608 0.60638468821772573 0 0.69476865134717358 0.54489658057314094 0 0.59419798201331608 0.60638468821772573 0 0.69476865134717358 0.54489658057314094 0 0.70761063098107846 0.67651765505752492 0 0.11664261570689435 0.49024778675104291 0 0.00013896101474236811 0.42856062444865861 0 0.00013503295855187223 0.57141717486340893 0 0.11772094274111655 0.3481393992741641 0 0.11664261570689435 0.49024778675104291 0 0.00013896101474236811 0.42856062444865861 0 0.11772094274111655 0.3481393992741641 0 0.11664261570689435 0.49024778675104291 0 0.23483053668802142 0.41542673519942597 0 0.36411854184599962 0.34186643761499136 0 0.36075350001878953 0.47848224533763051 0 0.23483053668802142 0.41542673519942597 0 0.36075350001878953 0.47848224533763051 0 0.23483053668802142 0.41542673519942597 0 0.23862001301591956 0.55061903367496601 0 0.11664261570689435 0.49024778675104291 0 0.23483053668802142 0.41542673519942597 0 0.23862001301591956 0.55061903367496601 0 0.23862001301591956 0.55061903367496601 0 0.23660495244359267 0.67712157914158189 0 0.11749027042799838 0.62688639624379927 0 0.36006322108913613 0.60785821303245724 0 0.23862001301591956 0.55061903367496601 0 0.23660495244359267 0.67712157914158189 0 0.36075350001878953 0.47848224533763051 0 0.36006322108913613 0.60785821303245724 0 0.23862001301591956 0.55061903367496601 0 0.36006322108913613 0.60785821303245724 0 0.23660495244359267 0.67712157914158189 0 0.3605757192641833 0.72129784519560269 0 0.23660495244359267 0.67712157914158189 0 0.11749027042799838 0.62688639624379927 0 0.10981565334514064 0.75319412579356948 0 0.11664261570689435 0.49024778675104291 0 0.23862001301591956 0.55061903367496601 0 0.11749027042799838 0.62688639624379927 0 0.11749027042799838 0.62688639624379927 0 0.00013503295855187223 0.57141717486340893 0 0.00013205910331799114 0.71425620259523093 0 0.11664261570689435 0.49024778675104291 0 0.11749027042799838 0.62688639624379927 0 0.00013503295855187223 0.57141717486340893 0 0.11749027042799838 0.62688639624379927 0 0.00013205910331799114 0.71425620259523093 0 0.10981565334514064 0.75319412579356948 0 0.00013205910331799114 0.71425620259523093 0 0.10981565334514064 0.75319412579356948 0 0.00012627323629332618 0.85712255694646611 0 0.10981565334514064 0.75319412579356948 0 0.089820854958254204 0.85491393182985631 0 0.21873211835085901 0.79884269901813365 0 0.089820854958254204 0.85491393182985631 0 0.13257130081010843 0.90206776141346734 0 0.21873211835085901 0.79884269901813365 0 0.089820854958254204 0.85491393182985631 0 0.00012627323629332618 0.85712255694646611 0 0.00012997042738179852 0.9998268636661497 0 0.10981565334514064 0.75319412579356948 0 0.089820854958254204 0.85491393182985631 0 0.00012627323629332618 0.85712255694646611 0 0.089820854958254204 0.85491393182985631 0 0.00012997042738179852 0.9998268636661497 0 0.13257130081010843 0.90206776141346734 0 0.13257130081010843 0.90206776141346734 0 0.10883200005042896 1.0660662668987013 0 0.21738210598501345 1.0490204942651733 0 0.00012997042738179852 0.9998268636661497 0 0.13257130081010843 0.90206776141346734 0 0.10883200005042896 1.0660662668987013 0 0.00012997042738179852 0.9998268636661497 0 0.10883200005042896 1.0660662668987013 0 0.00015802328225345859 1.1428408958333276 0 0.35163346443726951 1.0305180221955947 0 0.27212340326966777 0.85604866910764987 0 0.413369509917483 0.83654007411716758 0 0.35163346443726951 1.0305180221955947 0 0.21738210598501345 1.0490204942651733 0 0.27212340326966777 0.85604866910764987 0 0.13257130081010843 0.90206776141346734 0 0.21738210598501345 1.0490204942651733 0 0.27212340326966777 0.85604866910764987 0 0.13257130081010843 0.90206776141346734 0 0.27212340326966777 0.85604866910764987 0 0.21873211835085901 0.79884269901813365 0 0.27212340326966777 0.85604866910764987 0 0.34936249703075023 0.79892216552773965 0 0.413369509917483 0.83654007411716758 0 0.27212340326966777 0.85604866910764987 0 0.34936249703075023 0.79892216552773965 0 0.21873211835085901 0.79884269901813365 0 0.34936249703075023 0.79892216552773965 0 0.21873211835085901 0.79884269901813365 0 0.3605757192641833 0.72129784519560269 0 0.23660495244359267 0.67712157914158189 0 0.10981565334514064 0.75319412579356948 0 0.21873211835085901 0.79884269901813365 0 0.23660495244359267 0.67712157914158189 0 0.21873211835085901 0.79884269901813365 0 0.3605757192641833 0.72129784519560269 0 0.48123006203467378 0.66613062085693764 0 0.3605757192641833 0.72129784519560269 0 0.48173797721807882 0.77470627607802611 0 0.48123006203467378 0.66613062085693764 0 0.48173797721807882 0.77470627607802611 0 0.60572045795676621 0.72345140234717076 0 0.34936249703075023 0.79892216552773965 0 0.48173797721807882 0.77470627607802611 0 0.413369509917483 0.83654007411716758 0 0.34936249703075023 0.79892216552773965 0 0.3605757192641833 0.72129784519560269 0 0.48173797721807882 0.77470627607802611 0 0.60572045795676621 0.72345140234717076 0 0.73840932660503911 0.80349384833005988 0 0.70761063098107846 0.67651765505752492 0 0.48173797721807882 0.77470627607802611 0 0.61524937878575681 0.80177171957140903 0 0.55267063921189807 0.83822902048274084 0 0.48173797721807882 0.77470627607802611 0 0.60572045795676621 0.72345140234717076 0 0.61524937878575681 0.80177171957140903 0 0.61524937878575681 0.80177171957140903 0 0.69305107013673961 0.85956812668760696 0 0.73840932660503911 0.80349384833005988 0 0.60572045795676621 0.72345140234717076 0 0.61524937878575681 0.80177171957140903 0 0.73840932660503911 0.80349384833005988 0 0.61524937878575681 0.80177171957140903 0 0.69305107013673961 0.85956812668760696 0 0.55267063921189807 0.83822902048274084 0 0.55267063921189807 0.83822902048274084 0 0.63141190588078411 1.0393949494419323 0 0.49124783265763833 1.0285926177145488 0 0.69305107013673961 0.85956812668760696 0 0.55267063921189807 0.83822902048274084 0 0.63141190588078411 1.0393949494419323 0 0.69305107013673961 0.85956812668760696 0 0.63141190588078411 1.0393949494419323 0 0.77566711152400858 1.0617516332219921 0 0.48173797721807882 0.77470627607802611 0 0.55267063921189807 0.83822902048274084 0 0.413369509917483 0.83654007411716758 0 0.55267063921189807 0.83822902048274084 0 0.413369509917483 0.83654007411716758 0 0.49124783265763833 1.0285926177145488 0 0.35163346443726951 1.0305180221955947 0 0.413369509917483 0.83654007411716758 0 0.49124783265763833 1.0285926177145488 0 0.35163346443726951 1.0305180221955947 0 0.49124783265763833 1.0285926177145488 0 0.42548246741905776 1.1929671822409489 0 0.49124783265763833 1.0285926177145488 0 0.42548246741905776 1.1929671822409489 0 0.5674161579082645 1.2006393986704407 0 0.42548246741905776 1.1929671822409489 0 0.5674161579082645 1.2006393986704407 0 0.49768638765909368 1.3480557923902696 0 0.63141190588078411 1.0393949494419323 0 0.71670419851829748 1.2118104344635812 0 0.77566711152400858 1.0617516332219921 0 0.63141190588078411 1.0393949494419323 0 0.49124783265763833 1.0285926177145488 0 0.5674161579082645 1.2006393986704407 0 0.63141190588078411 1.0393949494419323 0 0.5674161579082645 1.2006393986704407 0 0.71670419851829748 1.2118104344635812 0 0.5674161579082645 1.2006393986704407 0 0.71670419851829748 1.2118104344635812 0 0.64718236334828216 1.3536078172862596 0 0.71670419851829748 1.2118104344635812 0 0.64718236334828216 1.3536078172862596 0 0.81209871552192037 1.358576037025377 0 0.5674161579082645 1.2006393986704407 0 0.64718236334828216 1.3536078172862596 0 0.49768638765909368 1.3480557923902696 0 0.64718236334828216 1.3536078172862596 0 0.5736072089899793 1.4936912416106425 0 0.731180123042804 1.4943477367643041 0 0.64718236334828216 1.3536078172862596 0 0.5736072089899793 1.4936912416106425 0 0.49768638765909368 1.3480557923902696 0 0.64718236334828216 1.3536078172862596 0 0.731180123042804 1.4943477367643041 0 0.81209871552192037 1.358576037025377 0 0.42548246741905776 1.1929671822409489 0 0.49768638765909368 1.3480557923902696 0 0.35784412261474502 1.3457290742165628 0 0.5736072089899793 1.4936912416106425 0 0.49768638765909368 1.3480557923902696 0 0.42851158310453824 1.4921659865147601 0 0.49768638765909368 1.3480557923902696 0 0.42851158310453824 1.4921659865147601 0 0.35784412261474502 1.3457290742165628 0 0.42851158310453824 1.4921659865147601 0 0.35784412261474502 1.3457290742165628 0 0.28535304844337317 1.4939443920988489 0 0.35784412261474502 1.3457290742165628 0 0.21694717782489642 1.3487111373438534 0 0.28674267846656465 1.1979751013519024 0 0.21694717782489642 1.3487111373438534 0 0.28535304844337317 1.4939443920988489 0 0.13477757303762655 1.4980923240967421 0 0.35784412261474502 1.3457290742165628 0 0.21694717782489642 1.3487111373438534 0 0.28535304844337317 1.4939443920988489 0 0.13477757303762655 1.4980923240967421 0 0.00015000904499728437 1.428567717207802 0 0.094813065542435321 1.3504371140086171 0 0.13477757303762655 1.4980923240967421 0 0.00015000904499728437 1.428567717207802 0 0.00014975594366081792 1.5714321331917001 0 0.00015000904499728437 1.428567717207802 0 0.094813065542435321 1.3504371140086171 0 0.00014843607236962304 1.285691753523132 0 0.21694717782489642 1.3487111373438534 0 0.094813065542435321 1.3504371140086171 0 0.13641339006076073 1.2078890855334641 0 0.21694717782489642 1.3487111373438534 0 0.13477757303762655 1.4980923240967421 0 0.094813065542435321 1.3504371140086171 0 0.13641339006076073 1.2078890855334641 0 0.00014843607236962304 1.285691753523132 0 0.00015802328225345859 1.1428408958333276 0 0.094813065542435321 1.3504371140086171 0 0.13641339006076073 1.2078890855334641 0 0.00014843607236962304 1.285691753523132 0 0.10883200005042896 1.0660662668987013 0 0.13641339006076073 1.2078890855334641 0 0.00015802328225345859 1.1428408958333276 0 0.10883200005042896 1.0660662668987013 0 0.21738210598501345 1.0490204942651733 0 0.13641339006076073 1.2078890855334641 0 0.21738210598501345 1.0490204942651733 0 0.13641339006076073 1.2078890855334641 0 0.28674267846656465 1.1979751013519024 0 0.35163346443726951 1.0305180221955947 0 0.42548246741905776 1.1929671822409489 0 0.28674267846656465 1.1979751013519024 0 0.35163346443726951 1.0305180221955947 0 0.21738210598501345 1.0490204942651733 0 0.28674267846656465 1.1979751013519024 0 0.42548246741905776 1.1929671822409489 0 0.35784412261474502 1.3457290742165628 0 0.28674267846656465 1.1979751013519024 0 0.21694717782489642 1.3487111373438534 0 0.13641339006076073 1.2078890855334641 0 0.28674267846656465 1.1979751013519024 0 1.2752531837104086 1.3003400050741922 0 1.1919445007770904 1.3608373552130058 0 1.1646727482906754 1.228696365435149 0 1.2752531837104086 1.3003400050741922 0 1.2459464604666977 1.1743246381732848 0 1.1646727482906754 1.228696365435149 0 1.2459464604666977 1.1743246381732848 0 1.1646727482906754 1.228696365435149 0 1.1250815374138519 1.1253266574514409 0 1.2752531837104086 1.3003400050741922 0 1.2459464604666977 1.1743246381732848 0 1.3871006947751436 1.2532187679334514 0 1.2459464604666977 1.1743246381732848 0 1.3871006947751436 1.2532187679334514 0 1.3603962132757259 1.1728923440216337 0 1.3871006947751436 1.2532187679334514 0 1.5017671255228515 1.1970991993070232 0 1.5048162969062224 1.3113587934626012 0 1.3871006947751436 1.2532187679334514 0 1.3603962132757259 1.1728923440216337 0 1.5017671255228515 1.1970991993070232 0 1.3871006947751436 1.2532187679334514 0 1.3905943857064791 1.3688936163083194 0 1.5048162969062224 1.3113587934626012 0 1.2752531837104086 1.3003400050741922 0 1.3871006947751436 1.2532187679334514 0 1.3905943857064791 1.3688936163083194 0 1.3905943857064791 1.3688936163083194 0 1.5048162969062224 1.3113587934626012 0 1.5046792299256384 1.4350147009894065 0 1.3905943857064791 1.3688936163083194 0 1.3932288976754261 1.4999874510472959 0 1.5046792299256384 1.4350147009894065 0 1.3905943857064791 1.3688936163083194 0 1.3932288976754261 1.4999874510472959 0 1.2865186507342687 1.4309257838920562 0 1.3932288976754261 1.4999874510472959 0 1.2865186507342687 1.4309257838920562 0 1.2871509282320317 1.5672073714017485 0 1.2752531837104086 1.3003400050741922 0 1.3905943857064791 1.3688936163083194 0 1.2865186507342687 1.4309257838920562 0 1.2752531837104086 1.3003400050741922 0 1.2865186507342687 1.4309257838920562 0 1.1919445007770904 1.3608373552130058 0 1.2865186507342687 1.4309257838920562 0 1.1980173999006756 1.4999873746627157 0 1.2871509282320317 1.5672073714017485 0 1.2865186507342687 1.4309257838920562 0 1.1919445007770904 1.3608373552130058 0 1.1980173999006756 1.4999873746627157 0 1.1980173999006756 1.4999873746627157 0 1.1342819927959611 1.4284040774737481 0 1.1342850836147962 1.5715982631001455 0 1.1919445007770904 1.3608373552130058 0 1.1980173999006756 1.4999873746627157 0 1.1342819927959611 1.4284040774737481 0 1.1342819927959611 1.4284040774737481 0 0.93492988110037079 1.4974605897579345 0 1.1342850836147962 1.5715982631001455 0 1.1342819927959611 1.4284040774737481 0 0.97550700792481704 1.3541808576185383 0 1.1150751328303357 1.2867115608489401 0 1.1919445007770904 1.3608373552130058 0 1.1342819927959611 1.4284040774737481 0 1.1150751328303357 1.2867115608489401 0 0.731180123042804 1.4943477367643041 0 0.93492988110037079 1.4974605897579345 0 0.81209871552192037 1.358576037025377 0 0.93492988110037079 1.4974605897579345 0 0.97550700792481704 1.3541808576185383 0 0.81209871552192037 1.358576037025377 0 1.1342819927959611 1.4284040774737481 0 0.93492988110037079 1.4974605897579345 0 0.97550700792481704 1.3541808576185383 0 0.97550700792481704 1.3541808576185383 0 0.81209871552192037 1.358576037025377 0 0.90089704611961674 1.2151448217990235 0 0.71670419851829748 1.2118104344635812 0 0.81209871552192037 1.358576037025377 0 0.90089704611961674 1.2