<?xml version="1.0"?>
<VTKFile type="UnstructuredGrid" version="0.1" byte_order="LittleEndian">
<UnstructuredGrid>
<Piece NumberOfPoints="3186" NumberOfCells="1062">
<Points>
<DataArray type="Float64" NumberOfComponents="3" format="ascii">
0 0 0 0.14285714285686729 0 0 0.10402057578810379 0.10402057578810379 0 0 0 0 0.10402057578810379 0.10402057578810379 0 0 0.14285714285686729 0 0.14285714285686729 0 0 0.10402057578810379 0.10402057578810379 0 0.21622614199724011 0.1170905489967794 0 0.10402057578810379 0.10402057578810379 0 0.12873413335214179 0.22892000827465461 0 0.21622614199724011 0.1170905489967794 0 0.10402057578810379 0.10402057578810379 0 0 0.14285714285686729 0 0.12873413335214179 0.22892000827465461 0 0 0.14285714285686729 0 0 0.28571428571359381 0 0.12873413335214179 0.22892000827465461 0 0.093737460955887239 0.36334567880837831 0 0 0.28571428571359381 0 0 0.42857142857032021 0 0.093737460955887239 0.36334567880837831 0 0 0.28571428571359381 0 0.12873413335214179 0.22892000827465461 0 0.093737460955887239 0.36334567880837831 0 0.12873413335214179 0.22892000827465461 0 0.21341038379882901 0.37169997079090128 0 0.12873413335214179 0.22892000827465461 0 0.28183877965613813 0.2453094238274868 0 0.21622614199724011 0.1170905489967794 0 0.12873413335214179 0.22892000827465461 0 0.21341038379882901 0.37169997079090128 0 0.28183877965613813 0.2453094238274868 0 0.21341038379882901 0.37169997079090128 0 0.28183877965613813 0.2453094238274868 0 0.35714458040172548 0.37949340689832922 0 0.28183877965613813 0.2453094238274868 0 0.35714458040172548 0.37949340689832922 0 0.42857142856968189 0.24782843958009351 0 0.28183877965613813 0.2453094238274868 0 0.35419193461659548 0.1242932860904311 0 0.42857142856968189 0.24782843958009351 0 0.28183877965613813 0.2453094238274868 0 0.35419193461659548 0.1242932860904311 0 0.21622614199724011 0.1170905489967794 0 0.35419193461659548 0.1242932860904311 0 0.28571428571359381 0 0 0.21622614199724011 0.1170905489967794 0 0.35419193461659548 0.1242932860904311 0 0.28571428571359381 0 0 0.42857142857032021 0 0 0.14285714285686729 0 0 0.28571428571359381 0 0 0.21622614199724011 0.1170905489967794 0 0.091975849439628388 0.63906079561326345 0 0.21183497469564019 0.63320029487793694 0 0.12868163055416221 0.76697400229767487 0 0 0.71428571428496201 0 0.091975849439628388 0.63906079561326345 0 0.12868163055416221 0.76697400229767487 0 0.091975849439628388 0.63906079561326345 0 0 0.57142857142744297 0 0.12654278762846541 0.50182270069242174 0 0 0.71428571428496201 0 0.091975849439628388 0.63906079561326345 0 0 0.57142857142744297 0 0.091975849439628388 0.63906079561326345 0 0.12654278762846541 0.50182270069242174 0 0.21183497469564019 0.63320029487793694 0 0 0.57142857142744297 0 0.12654278762846541 0.50182270069242174 0 0 0.42857142857032021 0 0.093737460955887239 0.36334567880837831 0 0.12654278762846541 0.50182270069242174 0 0 0.42857142857032021 0 0.093737460955887239 0.36334567880837831 0 0.21341038379882901 0.37169997079090128 0 0.12654278762846541 0.50182270069242174 0 0.21341038379882901 0.37169997079090128 0 0.12654278762846541 0.50182270069242174 0 0.28571428571288859 0.50512834069527579 0 0.35714458040172548 0.37949340689832922 0 0.28571428571288859 0.50512834069527579 0 0.42857911129460902 0.5051327763182708 0 0.21341038379882901 0.37169997079090128 0 0.35714458040172548 0.37949340689832922 0 0.28571428571288859 0.50512834069527579 0 0.28571428571288859 0.50512834069527579 0 0.35657912408519199 0.6297632267709089 0 0.42857911129460902 0.5051327763182708 0 0.12654278762846541 0.50182270069242174 0 0.28571428571288859 0.50512834069527579 0 0.21183497469564019 0.63320029487793694 0 0.28571428571288859 0.50512834069527579 0 0.21183497469564019 0.63320029487793694 0 0.35657912408519199 0.6297632267709089 0 0.35657912408519199 0.6297632267709089 0 0.42876602422768972 0.75267652020288756 0 0.28454251053718921 0.75357332720455328 0 0.21183497469564019 0.63320029487793694 0 0.35657912408519199 0.6297632267709089 0 0.28454251053718921 0.75357332720455328 0 0.21183497469564019 0.63320029487793694 0 0.28454251053718921 0.75357332720455328 0 0.12868163055416221 0.76697400229767487 0 0.50003783804313584 0.62886810132652948 0 0.57146100403685018 0.75258289532342593 0 0.42876602422768972 0.75267652020288756 0 0.35657912408519199 0.6297632267709089 0 0.50003783804313584 0.62886810132652948 0 0.42876602422768972 0.75267652020288756 0 0.35657912408519199 0.6297632267709089 0 0.50003783804313584 0.62886810132652948 0 0.42857911129460902 0.5051327763182708 0 0.50003783804313584 0.62886810132652948 0 0.42857911129460902 0.5051327763182708 0 0.57143682973041188 0.50513310862866234 0 0.35714458040172548 0.37949340689832922 0 0.42857911129460902 0.5051327763182708 0 0.50000265683637624 0.3797679478844822 0 0.42857911129460902 0.5051327763182708 0 0.50000265683637624 0.3797679478844822 0 0.57143682973041188 0.50513310862866234 0 0.6428589620457259 0.38113747419351418 0 0.71689882325258081 0.50562151542895928 0 0.57143682973041188 0.50513310862866234 0 0.50000265683637624 0.3797679478844822 0 0.6428589620457259 0.38113747419351418 0 0.57143682973041188 0.50513310862866234 0 0.6428589620457259 0.38113747419351418 0 0.71689882325258081 0.50562151542895928 0 0.78571428571267199 0.38141042586853341 0 0.71689882325258081 0.50562151542895928 0 0.57143682973041188 0.50513310862866234 0 0.6428688546313952 0.62885301731806609 0 0.50003783804313584 0.62886810132652948 0 0.57143682973041188 0.50513310862866234 0 0.6428688546313952 0.62885301731806609 0 0.71689882325258081 0.50562151542895928 0 0.6428688546313952 0.62885301731806609 0 0.7865654166374938 0.63474444568669874 0 0.6428688546313952 0.62885301731806609 0 0.7865654166374938 0.63474444568669874 0 0.71537080136980369 0.7565812122385458 0 0.50003783804313584 0.62886810132652948 0 0.6428688546313952 0.62885301731806609 0 0.57146100403685018 0.75258289532342593 0 0.6428688546313952 0.62885301731806609 0 0.57146100403685018 0.75258289532342593 0 0.71537080136980369 0.7565812122385458 0 0.49927531931040692 0.1259400136946118 0 0.42857142857032021 0 0 0.57142857142744297 0 0 0.35419193461659548 0.1242932860904311 0 0.49927531931040692 0.1259400136946118 0 0.42857142857032021 0 0 0.35419193461659548 0.1242932860904311 0 0.49927531931040692 0.1259400136946118 0 0.42857142856968189 0.24782843958009351 0 0.35714458040172548 0.37949340689832922 0 0.50000265683637624 0.3797679478844822 0 0.42857142856968189 0.24782843958009351 0 0.50000265683637624 0.3797679478844822 0 0.42857142856968189 0.24782843958009351 0 0.57134283277699616 0.25528695228377429 0 0.49927531931040692 0.1259400136946118 0 0.42857142856968189 0.24782843958009351 0 0.57134283277699616 0.25528695228377429 0 0.57134283277699616 0.25528695228377429 0 0.71335089116972128 0.25578338314493299 0 0.64223892332544308 0.130274960827549 0 0.6428589620457259 0.38113747419351418 0 0.57134283277699616 0.25528695228377429 0 0.71335089116972128 0.25578338314493299 0 0.50000265683637624 0.3797679478844822 0 0.6428589620457259 0.38113747419351418 0 0.57134283277699616 0.25528695228377429 0 0.6428589620457259 0.38113747419351418 0 0.71335089116972128 0.25578338314493299 0 0.78571428571267199 0.38141042586853341 0 0.71335089116972128 0.25578338314493299 0 0.64223892332544308 0.130274960827549 0 0.78018926648548503 0.12559094919453551 0 0.49927531931040692 0.1259400136946118 0 0.57134283277699616 0.25528695228377429 0 0.64223892332544308 0.130274960827549 0 0.64223892332544308 0.130274960827549 0 0.57142857142744297 0 0 0.71428571428496201 0 0 0.49927531931040692 0.1259400136946118 0 0.64223892332544308 0.130274960827549 0 0.57142857142744297 0 0 0.64223892332544308 0.130274960827549 0 0.71428571428496201 0 0 0.78018926648548503 0.12559094919453551 0 0.71428571428496201 0 0 0.78018926648548503 0.12559094919453551 0 0.85714285714248095 0 0 0.78018926648548503 0.12559094919453551 0 0.89542131320406015 0.10457868679576519 0 0.86802342313663505 0.2373869704637242 0 0.89542131320406015 0.10457868679576519 0 1 0.14285714285686729 0 0.86802342313663505 0.2373869704637242 0 0.89542131320406015 0.10457868679576519 0 0.85714285714248095 0 0 1 0 0 0.78018926648548503 0.12559094919453551 0 0.89542131320406015 0.10457868679576519 0 0.85714285714248095 0 0 0.89542131320406015 0.10457868679576519 0 1 0 0 1 0.14285714285686729 0 1 0.14285714285686729 0 1.1045786867956009 0.1045786867955263 0 1.11654878083672 0.2171580770020253 0 1 0 0 1 0.14285714285686729 0 1.1045786867956009 0.1045786867955263 0 1 0 0 1.1045786867956009 0.1045786867955263 0 1.142857142857143 0 0 1.120408926261548 0.35723491808527941 0 1 0.28571428571359381 0 1 0.42857142857032021 0 1.120408926261548 0.35723491808527941 0 1.11654878083672 0.2171580770020253 0 1 0.28571428571359381 0 1 0.14285714285686729 0 1.11654878083672 0.2171580770020253 0 1 0.28571428571359381 0 1 0.14285714285686729 0 1 0.28571428571359381 0 0.86802342313663505 0.2373869704637242 0 1 0.28571428571359381 0 0.90513725992141869 0.36710674629889062 0 1 0.42857142857032021 0 1 0.28571428571359381 0 0.90513725992141869 0.36710674629889062 0 0.86802342313663505 0.2373869704637242 0 0.90513725992141869 0.36710674629889062 0 0.86802342313663505 0.2373869704637242 0 0.78571428571267199 0.38141042586853341 0 0.71335089116972128 0.25578338314493299 0 0.78018926648548503 0.12559094919453551 0 0.86802342313663505 0.2373869704637242 0 0.71335089116972128 0.25578338314493299 0 0.86802342313663505 0.2373869704637242 0 0.78571428571267199 0.38141042586853341 0 0.71689882325258081 0.50562151542895928 0 0.78571428571267199 0.38141042586853341 0 0.87194859075778619 0.50245062087828152 0 0.71689882325258081 0.50562151542895928 0 0.87194859075778619 0.50245062087828152 0 0.7865654166374938 0.63474444568669874 0 0.90513725992141869 0.36710674629889062 0 0.87194859075778619 0.50245062087828152 0 1 0.42857142857032021 0 0.90513725992141869 0.36710674629889062 0 0.78571428571267199 0.38141042586853341 0 0.8719485907
[...]
<PointData Scalars="" Vectors="displacement," Tensors="">
<DataArray type="Float64" Name="displacement" NumberOfComponents="3" format="ascii">
7.1795294734243575e-05 7.1349928035396791e-05 0 0.0001565700902411654 0.14282951679562902 0 0.099304793476602746 0.10022596645427186 0 7.1795294734243575e-05 7.1349928035396791e-05 0 0.099304793476602746 0.10022596645427186 0 0.14282810917619743 0.00015711250819627176 0 0.0001565700902411654 0.14282951679562902 0 0.099304793476602746 0.10022596645427186 0 0.10717489138546508 0.20950754928429421 0 0.099304793476602746 0.10022596645427186 0 0.217173630573679 0.12031101002604409 0 0.10717489138546508 0.20950754928429421 0 0.099304793476602746 0.10022596645427186 0 0.14282810917619743 0.00015711250819627176 0 0.217173630573679 0.12031101002604409 0 0.14282810917619743 0.00015711250819627176 0 0.28570251119012297 0.00013015581614160877 0 0.217173630573679 0.12031101002604409 0 0.34964147657467592 0.085297316680789229 0 0.28570251119012297 0.00013015581614160877 0 0.42854474829020694 0.0001360214715455515 0 0.34964147657467592 0.085297316680789229 0 0.28570251119012297 0.00013015581614160877 0 0.217173630573679 0.12031101002604409 0 0.34964147657467592 0.085297316680789229 0 0.217173630573679 0.12031101002604409 0 0.34089129825833042 0.19781511135950491 0 0.217173630573679 0.12031101002604409 0 0.21960669071608013 0.26860649860604702 0 0.10717489138546508 0.20950754928429421 0 0.217173630573679 0.12031101002604409 0 0.34089129825833042 0.19781511135950491 0 0.21960669071608013 0.26860649860604702 0 0.34089129825833042 0.19781511135950491 0 0.21960669071608013 0.26860649860604702 0 0.32877441587160816 0.33882509733766009 0 0.21960669071608013 0.26860649860604702 0 0.32877441587160816 0.33882509733766009 0 0.2104351798077175 0.41464112101736467 0 0.21960669071608013 0.26860649860604702 0 0.10859236108571903 0.34619805015686089 0 0.2104351798077175 0.41464112101736467 0 0.21960669071608013 0.26860649860604702 0 0.10859236108571903 0.34619805015686089 0 0.10717489138546508 0.20950754928429421 0 0.10859236108571903 0.34619805015686089 0 0.0001301651924135271 0.28570924190179781 0 0.10717489138546508 0.20950754928429421 0 0.10859236108571903 0.34619805015686089 0 0.0001301651924135271 0.28570924190179781 0 0.0001336455453762282 0.42855960133021809 0 0.0001565700902411654 0.14282951679562902 0 0.0001301651924135271 0.28570924190179781 0 0.10717489138546508 0.20950754928429421 0 0.61198894538513593 0.080383492536729204 0 0.57313993395163243 0.19234131048025344 0 0.71459897893468149 0.11221327405560219 0 0.71423068917009713 0.00013198769723285069 0 0.61198894538513593 0.080383492536729204 0 0.71459897893468149 0.11221327405560219 0 0.61198894538513593 0.080383492536729204 0 0.57139406561993566 0.0001309126244104413 0 0.47533003640388111 0.11290826271535746 0 0.71423068917009713 0.00013198769723285069 0 0.61198894538513593 0.080383492536729204 0 0.57139406561993566 0.0001309126244104413 0 0.61198894538513593 0.080383492536729204 0 0.47533003640388111 0.11290826271535746 0 0.57313993395163243 0.19234131048025344 0 0.57139406561993566 0.0001309126244104413 0 0.47533003640388111 0.11290826271535746 0 0.42854474829020694 0.0001360214715455515 0 0.34964147657467592 0.085297316680789229 0 0.47533003640388111 0.11290826271535746 0 0.42854474829020694 0.0001360214715455515 0 0.34964147657467592 0.085297316680789229 0 0.34089129825833042 0.19781511135950491 0 0.47533003640388111 0.11290826271535746 0 0.34089129825833042 0.19781511135950491 0 0.47533003640388111 0.11290826271535746 0 0.44689566584929513 0.26561720212885404 0 0.32877441587160816 0.33882509733766009 0 0.44689566584929513 0.26561720212885404 0 0.42092493806980585 0.40864050920550771 0 0.34089129825833042 0.19781511135950491 0 0.32877441587160816 0.33882509733766009 0 0.44689566584929513 0.26561720212885404 0 0.44689566584929513 0.26561720212885404 0 0.53282280835280571 0.33617619114716774 0 0.42092493806980585 0.40864050920550771 0 0.47533003640388111 0.11290826271535746 0 0.44689566584929513 0.26561720212885404 0 0.57313993395163243 0.19234131048025344 0 0.44689566584929513 0.26561720212885404 0 0.57313993395163243 0.19234131048025344 0 0.53282280835280571 0.33617619114716774 0 0.53282280835280571 0.33617619114716774 0 0.60108569315994076 0.41300349419619881 0 0.64676932192767345 0.26593353048658536 0 0.57313993395163243 0.19234131048025344 0 0.53282280835280571 0.33617619114716774 0 0.64676932192767345 0.26593353048658536 0 0.57313993395163243 0.19234131048025344 0 0.64676932192767345 0.26593353048658536 0 0.71459897893468149 0.11221327405560219 0 0.49947014896492825 0.48237278866041672 0 0.5643282439019025 0.5594244067108336 0 0.60108569315994076 0.41300349419619881 0 0.53282280835280571 0.33617619114716774 0 0.49947014896492825 0.48237278866041672 0 0.60108569315994076 0.41300349419619881 0 0.53282280835280571 0.33617619114716774 0 0.49947014896492825 0.48237278866041672 0 0.42092493806980585 0.40864050920550771 0 0.49947014896492825 0.48237278866041672 0 0.42092493806980585 0.40864050920550771 0 0.39787857797823534 0.55421961185797963 0 0.32877441587160816 0.33882509733766009 0 0.42092493806980585 0.40864050920550771 0 0.31172693939833973 0.48263768482128155 0 0.42092493806980585 0.40864050920550771 0 0.31172693939833973 0.48263768482128155 0 0.39787857797823534 0.55421961185797963 0 0.29731595192545263 0.62801125629353571 0 0.37822472296374177 0.70316924617535859 0 0.39787857797823534 0.55421961185797963 0 0.31172693939833973 0.48263768482128155 0 0.29731595192545263 0.62801125629353571 0 0.39787857797823534 0.55421961185797963 0 0.29731595192545263 0.62801125629353571 0 0.37822472296374177 0.70316924617535859 0 0.284266597578615 0.7738201054497218 0 0.37822472296374177 0.70316924617535859 0 0.39787857797823534 0.55421961185797963 0 0.47203239498344207 0.62886920321222417 0 0.49947014896492825 0.48237278866041672 0 0.39787857797823534 0.55421961185797963 0 0.47203239498344207 0.62886920321222417 0 0.37822472296374177 0.70316924617535859 0 0.47203239498344207 0.62886920321222417 0 0.45325003604550823 0.77615020745061747 0 0.47203239498344207 0.62886920321222417 0 0.45325003604550823 0.77615020745061747 0 0.53698355382146723 0.70690259173241055 0 0.49947014896492825 0.48237278866041672 0 0.47203239498344207 0.62886920321222417 0 0.5643282439019025 0.5594244067108336 0 0.47203239498344207 0.62886920321222417 0 0.5643282439019025 0.5594244067108336 0 0.53698355382146723 0.70690259173241055 0 0.10500454962085587 0.49145907056005722 0 0.0001336455453762282 0.42855960133021809 0 0.00012957140610679263 0.57141938477488796 0 0.10859236108571903 0.34619805015686089 0 0.10500454962085587 0.49145907056005722 0 0.0001336455453762282 0.42855960133021809 0 0.10859236108571903 0.34619805015686089 0 0.10500454962085587 0.49145907056005722 0 0.2104351798077175 0.41464112101736467 0 0.32877441587160816 0.33882509733766009 0 0.31172693939833973 0.48263768482128155 0 0.2104351798077175 0.41464112101736467 0 0.31172693939833973 0.48263768482128155 0 0.2104351798077175 0.41464112101736467 0 0.20635239779864831 0.55838068000242247 0 0.10500454962085587 0.49145907056005722 0 0.2104351798077175 0.41464112101736467 0 0.20635239779864831 0.55838068000242247 0 0.20635239779864831 0.55838068000242247 0 0.19757135017011154 0.70244216520280722 0 0.10384922877659342 0.63512240609820891 0 0.29731595192545263 0.62801125629353571 0 0.20635239779864831 0.55838068000242247 0 0.19757135017011154 0.70244216520280722 0 0.31172693939833973 0.48263768482128155 0 0.29731595192545263 0.62801125629353571 0 0.20635239779864831 0.55838068000242247 0 0.29731595192545263 0.62801125629353571 0 0.19757135017011154 0.70244216520280722 0 0.284266597578615 0.7738201054497218 0 0.19757135017011154 0.70244216520280722 0 0.10384922877659342 0.63512240609820891 0 0.096211281137302693 0.77440182573489291 0 0.10500454962085587 0.49145907056005722 0 0.20635239779864831 0.55838068000242247 0 0.10384922877659342 0.63512240609820891 0 0.10384922877659342 0.63512240609820891 0 0.00012957140610679263 0.57141938477488796 0 0.00012741015609525445 0.71427733131228377 0 0.10500454962085587 0.49145907056005722 0 0.10384922877659342 0.63512240609820891 0 0.00012957140610679263 0.57141938477488796 0 0.10384922877659342 0.63512240609820891 0 0.00012741015609525445 0.71427733131228377 0 0.096211281137302693 0.77440182573489291 0 0.00012741015609525445 0.71427733131228377 0 0.096211281137302693 0.77440182573489291 0 0.00012491802884225992 0.85713668074888516 0 0.096211281137302693 0.77440182573489291 0 0.077810809865299202 0.89155964571636392 0 0.17569501806997076 0.8600735545226349 0 0.077810809865299202 0.89155964571636392 0 0.10343776267580715 0.99590811634681753 0 0.17569501806997076 0.8600735545226349 0 0.077810809865299202 0.89155964571636392 0 0.00012491802884225992 0.85713668074888516 0 0.00012367900729959205 0.99999486283490246 0 0.096211281137302693 0.77440182573489291 0 0.077810809865299202 0.89155964571636392 0 0.00012491802884225992 0.85713668074888516 0 0.077810809865299202 0.89155964571636392 0 0.00012367900729959205 0.99999486283490246 0 0.10343776267580715 0.99590811634681753 0 0.10343776267580715 0.99590811634681753 0 0.074453590863497218 1.1021100327009523 0 0.15264052741516315 1.1122668803469467 0 0.00012367900729959205 0.99999486283490246 0 0.10343776267580715 0.99590811634681753 0 0.074453590863497218 1.1021100327009523 0 0.00012367900729959205 0.99999486283490246 0 0.074453590863497218 1.1021100327009523 0 0.00012221297714941001 1.1428537603080158 0 0.24692643706975706 1.115021125802887 0 0.20395049302177543 0.99336310253569993 0 0.30019219094143601 0.99241589913826056 0 0.24692643706975706 1.115021125802887 0 0.15264052741516315 1.1122668803469467 0 0.20395049302177543 0.99336310253569993 0 0.10343776267580715 0.99590811634681753 0 0.15264052741516315 1.1122668803469467 0 0.20395049302177543 0.99336310253569993 0 0.10343776267580715 0.99590811634681753 0 0.20395049302177543 0.99336310253569993 0 0.17569501806997076 0.8600735545226349 0 0.20395049302177543 0.99336310253569993 0 0.26526069267563207 0.89605657373356884 0 0.30019219094143601 0.99241589913826056 0 0.20395049302177543 0.99336310253569993 0 0.26526069267563207 0.89605657373356884 0 0.17569501806997076 0.8600735545226349 0 0.26526069267563207 0.89605657373356884 0 0.17569501806997076 0.8600735545226349 0 0.284266597578615 0.7738201054497218 0 0.19757135017011154 0.70244216520280722 0 0.096211281137302693 0.77440182573489291 0 0.17569501806997076 0.8600735545226349 0 0.19757135017011154 0.70244216520280722 0 0.17569501806997076 0.8600735545226349 0 0.284266597578615 0.7738201054497218 0 0.37822472296374177 0.70316924617535859 0 0.284266597578615 0.7738201054497218 0 0.35879772878682714 0.86188794505860711 0 0.37822472296374177 0.70316924617535859 0 0.35879772878682714 0.86188794505860711 0 0.45325003604550823 0.77615020745061747 0 0.26526069267563207 0.89605657373356884 0 0.35879772878682714 0.86188794505860711 0 0.30019219094143601 0.99241589913826056 0 0.26526069267563207 0.89605657373356884 0 0.284266597578615 0.7738201054497218 0 0.35879772878682714 0.86188794505860711 0 0.45325003604550823 0.77615020745061747 0 0.52100857780185328 0.86552028810749593 0 0.53698355382146723 0.70690259173241055 0 0.35879772878682714 0.86188794505860711 0 0.4407209524201724 0.89828342003233441 0 0.3906320211804179 0.99321702274813906 0 0.35879772878682714 0.86188794505860711 0 0.45325003604550823 0.77615020745061747 0 0.4407209524201724 0.89828342003233441 0 0.4407209524201724 0.89828342003233441 0 0.47390654326684689 0.99528386368384314 0 0.52100857780185328 0.86552028810749593 0 0.45325003604550823 0.77615020745061747 0 0.4407209524201724 0.89828342003233441 0 0.52100857780185328 0.86552028810749593 0 0.4407209524201724 0.89828342003233441 0 0.47390654326684689 0.99528386368384314 0 0.3906320211804179 0.99321702274813906 0 0.3906320211804179 0.99321702274813906 0 0.42283009991258375 1.1189822981618858 0 0.33873102842705616 1.117830915518784 0 0.47390654326684689 0.99528386368384314 0 0.3906320211804179 0.99321702274813906 0 0.42283009991258375 1.1189822981618858 0 0.47390654326684689 0.99528386368384314 0 0.42283009991258375 1.1189822981618858 0 0.49830586612762967 1.1184383215961951 0 0.35879772878682714 0.86188794505860711 0 0.3906320211804179 0.99321702274813906 0 0.30019219094143601 0.99241589913826056 0 0.3906320211804179 0.99321702274813906 0 0.30019219094143601 0.99241589913826056 0 0.33873102842705616 1.117830915518784 0 0.24692643706975706 1.115021125802887 0 0.30019219094143601 0.99241589913826056 0 0.33873102842705616 1.117830915518784 0 0.24692643706975706 1.115021125802887 0 0.33873102842705616 1.117830915518784 0 0.28764975681964444 1.2393918582110535 0 0.33873102842705616 1.117830915518784 0 0.28764975681964444 1.2393918582110535 0 0.37507485913400401 1.2441669955825527 0 0.28764975681964444 1.2393918582110535 0 0.37507485913400401 1.2441669955825527 0 0.32744263361001685 1.3674081564844003 0 0.42283009991258375 1.1189822981618858 0 0.4551312411836938 1.2448069683916079 0 0.49830586612762967 1.1184383215961951 0 0.42283009991258375 1.1189822981618858 0 0.33873102842705616 1.117830915518784 0 0.37507485913400401 1.2441669955825527 0 0.42283009991258375 1.1189822981618858 0 0.37507485913400401 1.2441669955825527 0 0.4551312411836938 1.2448069683916079 0 0.37507485913400401 1.2441669955825527 0 0.4551312411836938 1.2448069683916079 0 0.41180631436113313 1.3695278821821559 0 0.4551312411836938 1.2448069683916079 0 0.41180631436113313 1.3695278821821559 0 0.48760993270727426 1.368549438338057 0 0.37507485913400401 1.2441669955825527 0 0.41180631436113313 1.3695278821821559 0 0.32744263361001685 1.3674081564844003 0 0.41180631436113313 1.3695278821821559 0 0.36955643460778803 1.4944000399883361 0 0.449655113873552 1.4948243409648208 0 0.41180631436113313 1.3695278821821559 0 0.36955643460778803 1.4944000399883361 0 0.32744263361001685 1.3674081564844003 0 0.41180631436113313 1.3695278821821559 0 0.449655113873552 1.4948243409648208 0 0.48760993270727426 1.368549438338057 0 0.28764975681964444 1.2393918582110535 0 0.32744263361001685 1.3674081564844003 0 0.23797841095652714 1.3641059011680119 0 0.36955643460778803 1.4944000399883361 0 0.32744263361001685 1.3674081564844003 0 0.2823080518734738 1.4931172784721327 0 0.32744263361001685 1.3674081564844003 0 0.2823080518734738 1.4931172784721327 0 0.23797841095652714 1.3641059011680119 0 0.2823080518734738 1.4931172784721327 0 0.23797841095652714 1.3641059011680119 0 0.18790751824629121 1.4945227883547603 0 0.23797841095652714 1.3641059011680119 0 0.14261532285008208 1.3613567082638158 0 0.19423830055529301 1.2365000471131113 0 0.14261532285008208 1.3613567082638158 0 0.18790751824629121 1.4945227883547603 0 0.08693132666578908 1.4981690810110191 0 0.23797841095652714 1.3641059011680119 0 0.14261532285008208 1.3613567082638158 0 0.18790751824629121 1.4945227883547603 0 0.08693132666578908 1.4981690810110191 0 0.00012085878031253571 1.4285706104801774 0 0.06117059801101276 1.3563936482709935 0 0.08693132666578908 1.4981690810110191 0 0.00012085878031253571 1.4285706104801774 0 0.00012080881274415141 1.5714293720459698 0 0.00012085878031253571 1.4285706104801774 0 0.06117059801101276 1.3563936482709935 0 0.0001209494867639478 1.285712378981162 0 0.14261532285008208 1.3613567082638158 0 0.06117059801101276 1.3563936482709935 0 0.089542639852590547 1.2284253773506373 0 0.14261532285008208 1.3613567082638158 0 0.08693132666578908 1.4981690810110191 0 0.06117059801101276 1.3563936482709935 0 0.089542639852590547 1.2284253773506373 0 0.0001209494867639478 1.285712378981162 0 0.00012221297714941001 1.1428537603080158 0 0.06117059801101276 1.3563936482709935 0 0.089542639852590547 1.2284253773506373 0 0.0001209494867639478 1.285712378981162 0 0.074453590863497218 1.1021100327009523 0 0.089542639852590547 1.2284253773506373 0 0.00012221297714941001 1.1428537603080158 0 0.074453590863497218 1.1021100327009523 0 0.15264052741516315 1.1122668803469467 0 0.089542639852590547 1.2284253773506373 0 0.15264052741516315 1.1122668803469467 0 0.089542639852590547 1.2284253773506373 0 0.19423830055529301 1.2365000471131113 0 0.24692643706975706 1.115021125802887 0 0.28764975681964444 1.2393918582110535 0 0.19423830055529301 1.2365000471131113 0 0.24692643706975706 1.115021125802887 0 0.15264052741516315 1.1122668803469467 0 0.19423830055529301 1.2365000471131113 0 0.28764975681964444 1.2393918582110535 0 0.23797841095652714 1.3641059011680119 0 0.19423830055529301 1.2365000471131113 0 0.14261532285008208 1.3613567082638158 0 0.089542639852590547 1.2284253773506373 0 0.19423830055529301 1.2365000471131113 0 1.0554693948003646 1.2901693079514138 0 0.83147435066695463 1.3591544500162165 0 0.8220159667381417 1.2221288593628499 0 1.0554693948003646 1.2901693079514138 0 1.0304737597680125 1.1406862190236822 0 0.8220159667381417 1.2221288593628499 0 1.0304737597680125 1.1406862190236822 0 0.8220159667381417 1.2221288593628499 0 0.79658834912925935 1.1107072439149861 0 1.0554693948003646 1.2901693079514138 0 1.0304737597680125 1.1406862190236822 0 1.2892624105851507 1.2238534354080446 0 1.0304737597680125 1.1406862190236822 0 1.2892624105851507 1.2238534354080446 0 1.2488887049472164 1.1097329988792377 0 1.2892624105851507 1.2238534354080446 0 1.5031792862455267 1.1397495318217434 0 1.5091742295768893 1.2931730400477073 0 1.2892624105851507 1.2238534354080446 0 1.2488887049472164 1.1097329988792377 0 1.5031792862455267 1.1397495318217434 0 1.2892624105851507 1.2238534354080446 0 1.2858509992750682 1.3604552872708957 0 1.5091742295768893 1.2931730400477073 0 1.0554693948003646 1.2901693079514138 0 1.2892624105851507 1.2238534354080446 0 1.2858509992750682 1.3604552872708957 0 1.2858509992750682 1.3604552872708957 0 1.5091742295768893 1.2931730400477073 0 1.5092121613842999 1.4310365024470302 0 1.2858509992750682 1.3604552872708957 0 1.2869582820858805 1.4999857228343807 0 1.5092121613842999 1.4310365024470302 0 1.2858509992750682 1.3604552872708957 0 1.2869582820858805 1.4999857228343807 0 1.059622253336201 1.4288999299642933 0 1.2869582820858805 1.4999857228343807 0 1.059622253336201 1.4288999299642933 0 1.0608843523500604 1.5691931684633149 0 1.0554693948003646 1.2901693079514138 0 1.2858509992750682 1.3604552872708957 0 1.059622253336201 1.4288999299642933 0 1.0554693948003646 1.2901693079514138 0 1.059622253336201 1.4288999299642933 0 0.83147435066695463 1.3591544500162165 0 1.059622253336201 1.4288999299642933 0 0.8250657248995148 1.4999937470017488 0 1.0608843523500604 1.5691931684633149 0 1.059622253336201 1.4288999299642933 0 0.83147435066695463 1.3591544500162165 0 0.8250657248995148 1.4999937470017488 0 0.8250657248995148 1.4999937470017488 0 0.58966115452106826 1.42913457695484 0 0.58964111346218484 1.5708593864624292 0 0.83147435066695463 1.3591544500162165 0 0.8250657248995148 1.4999937470017488 0 0.58966115452106826 1.42913457695484 0 0.58966115452106826 1.42913457695484 0 0.5301455636797886 1.4975567790267774 0 0.58964111346218484 1.5708593864624292 0 0.58966115452106826 1.42913457695484 0 0.54753164755471195 1.3594427200167238 0 0.59350489542163831 1.2870075620753081 0 0.83147435066695463 1.3591544500162165 0 0.58966115452106826 1.42913457695484 0 0.59350489542163831 1.2870075620753081 0 0.449655113873552 1.4948243409648208 0 0.5301455636797886 1.4975567790267774 0 0.48760993270727426 1.368549438338057 0 0.5301455636797886 1.4975567790267774 0 0.54753164755471195 1.3594427200167238 0 0.48760993270727426 1.368549438338057 0 0.58966115452106826 1.42913457695484 0 0.5301455636797886 1.4975567790267774 0 0.54753164755471195 1.3594427200167238 0 0.54753164755471195 1.3594427200167238 0 0.48760993270727426 1.368549438338057 0 0.53548147754280639 1.2322110597082525 0 0.4551312411836938 1.2448069683916079 0 0.48760993270727426 1.368549438338057 0 0.53548147754280639 1.2322110597082525 0 0.5475316475547119