<?xml version="1.0"?>
<VTKFile type="UnstructuredGrid" version="0.1" byte_order="LittleEndian">
<UnstructuredGrid>
<Piece NumberOfPoints="3186" NumberOfCells="1062">
<Points>
<DataArray type="Float64" NumberOfComponents="3" format="ascii">
0 0 0 0.14285714285686729 0 0 0.10402057578810379 0.10402057578810379 0 0 0 0 0.10402057578810379 0.10402057578810379 0 0 0.14285714285686729 0 0.14285714285686729 0 0 0.10402057578810379 0.10402057578810379 0 0.21622614199724011 0.1170905489967794 0 0.10402057578810379 0.10402057578810379 0 0.12873413335214179 0.22892000827465461 0 0.21622614199724011 0.1170905489967794 0 0.10402057578810379 0.10402057578810379 0 0 0.14285714285686729 0 0.12873413335214179 0.22892000827465461 0 0 0.14285714285686729 0 0 0.28571428571359381 0 0.12873413335214179 0.22892000827465461 0 0.093737460955887239 0.36334567880837831 0 0 0.28571428571359381 0 0 0.42857142857032021 0 0.093737460955887239 0.36334567880837831 0 0 0.28571428571359381 0 0.12873413335214179 0.22892000827465461 0 0.093737460955887239 0.36334567880837831 0 0.12873413335214179 0.22892000827465461 0 0.21341038379882901 0.37169997079090128 0 0.12873413335214179 0.22892000827465461 0 0.28183877965613813 0.2453094238274868 0 0.21622614199724011 0.1170905489967794 0 0.12873413335214179 0.22892000827465461 0 0.21341038379882901 0.37169997079090128 0 0.28183877965613813 0.2453094238274868 0 0.21341038379882901 0.37169997079090128 0 0.28183877965613813 0.2453094238274868 0 0.35714458040172548 0.37949340689832922 0 0.28183877965613813 0.2453094238274868 0 0.35714458040172548 0.37949340689832922 0 0.42857142856968189 0.24782843958009351 0 0.28183877965613813 0.2453094238274868 0 0.35419193461659548 0.1242932860904311 0 0.42857142856968189 0.24782843958009351 0 0.28183877965613813 0.2453094238274868 0 0.35419193461659548 0.1242932860904311 0 0.21622614199724011 0.1170905489967794 0 0.35419193461659548 0.1242932860904311 0 0.28571428571359381 0 0 0.21622614199724011 0.1170905489967794 0 0.35419193461659548 0.1242932860904311 0 0.28571428571359381 0 0 0.42857142857032021 0 0 0.14285714285686729 0 0 0.28571428571359381 0 0 0.21622614199724011 0.1170905489967794 0 0.091975849439628388 0.63906079561326345 0 0.21183497469564019 0.63320029487793694 0 0.12868163055416221 0.76697400229767487 0 0 0.71428571428496201 0 0.091975849439628388 0.63906079561326345 0 0.12868163055416221 0.76697400229767487 0 0.091975849439628388 0.63906079561326345 0 0 0.57142857142744297 0 0.12654278762846541 0.50182270069242174 0 0 0.71428571428496201 0 0.091975849439628388 0.63906079561326345 0 0 0.57142857142744297 0 0.091975849439628388 0.63906079561326345 0 0.12654278762846541 0.50182270069242174 0 0.21183497469564019 0.63320029487793694 0 0 0.57142857142744297 0 0.12654278762846541 0.50182270069242174 0 0 0.42857142857032021 0 0.093737460955887239 0.36334567880837831 0 0.12654278762846541 0.50182270069242174 0 0 0.42857142857032021 0 0.093737460955887239 0.36334567880837831 0 0.21341038379882901 0.37169997079090128 0 0.12654278762846541 0.50182270069242174 0 0.21341038379882901 0.37169997079090128 0 0.12654278762846541 0.50182270069242174 0 0.28571428571288859 0.50512834069527579 0 0.35714458040172548 0.37949340689832922 0 0.28571428571288859 0.50512834069527579 0 0.42857911129460902 0.5051327763182708 0 0.21341038379882901 0.37169997079090128 0 0.35714458040172548 0.37949340689832922 0 0.28571428571288859 0.50512834069527579 0 0.28571428571288859 0.50512834069527579 0 0.35657912408519199 0.6297632267709089 0 0.42857911129460902 0.5051327763182708 0 0.12654278762846541 0.50182270069242174 0 0.28571428571288859 0.50512834069527579 0 0.21183497469564019 0.63320029487793694 0 0.28571428571288859 0.50512834069527579 0 0.21183497469564019 0.63320029487793694 0 0.35657912408519199 0.6297632267709089 0 0.35657912408519199 0.6297632267709089 0 0.42876602422768972 0.75267652020288756 0 0.28454251053718921 0.75357332720455328 0 0.21183497469564019 0.63320029487793694 0 0.35657912408519199 0.6297632267709089 0 0.28454251053718921 0.75357332720455328 0 0.21183497469564019 0.63320029487793694 0 0.28454251053718921 0.75357332720455328 0 0.12868163055416221 0.76697400229767487 0 0.50003783804313584 0.62886810132652948 0 0.57146100403685018 0.75258289532342593 0 0.42876602422768972 0.75267652020288756 0 0.35657912408519199 0.6297632267709089 0 0.50003783804313584 0.62886810132652948 0 0.42876602422768972 0.75267652020288756 0 0.35657912408519199 0.6297632267709089 0 0.50003783804313584 0.62886810132652948 0 0.42857911129460902 0.5051327763182708 0 0.50003783804313584 0.62886810132652948 0 0.42857911129460902 0.5051327763182708 0 0.57143682973041188 0.50513310862866234 0 0.35714458040172548 0.37949340689832922 0 0.42857911129460902 0.5051327763182708 0 0.50000265683637624 0.3797679478844822 0 0.42857911129460902 0.5051327763182708 0 0.50000265683637624 0.3797679478844822 0 0.57143682973041188 0.50513310862866234 0 0.6428589620457259 0.38113747419351418 0 0.71689882325258081 0.50562151542895928 0 0.57143682973041188 0.50513310862866234 0 0.50000265683637624 0.3797679478844822 0 0.6428589620457259 0.38113747419351418 0 0.57143682973041188 0.50513310862866234 0 0.6428589620457259 0.38113747419351418 0 0.71689882325258081 0.50562151542895928 0 0.78571428571267199 0.38141042586853341 0 0.71689882325258081 0.50562151542895928 0 0.57143682973041188 0.50513310862866234 0 0.6428688546313952 0.62885301731806609 0 0.50003783804313584 0.62886810132652948 0 0.57143682973041188 0.50513310862866234 0 0.6428688546313952 0.62885301731806609 0 0.71689882325258081 0.50562151542895928 0 0.6428688546313952 0.62885301731806609 0 0.7865654166374938 0.63474444568669874 0 0.6428688546313952 0.62885301731806609 0 0.7865654166374938 0.63474444568669874 0 0.71537080136980369 0.7565812122385458 0 0.50003783804313584 0.62886810132652948 0 0.6428688546313952 0.62885301731806609 0 0.57146100403685018 0.75258289532342593 0 0.6428688546313952 0.62885301731806609 0 0.57146100403685018 0.75258289532342593 0 0.71537080136980369 0.7565812122385458 0 0.49927531931040692 0.1259400136946118 0 0.42857142857032021 0 0 0.57142857142744297 0 0 0.35419193461659548 0.1242932860904311 0 0.49927531931040692 0.1259400136946118 0 0.42857142857032021 0 0 0.35419193461659548 0.1242932860904311 0 0.49927531931040692 0.1259400136946118 0 0.42857142856968189 0.24782843958009351 0 0.35714458040172548 0.37949340689832922 0 0.50000265683637624 0.3797679478844822 0 0.42857142856968189 0.24782843958009351 0 0.50000265683637624 0.3797679478844822 0 0.42857142856968189 0.24782843958009351 0 0.57134283277699616 0.25528695228377429 0 0.49927531931040692 0.1259400136946118 0 0.42857142856968189 0.24782843958009351 0 0.57134283277699616 0.25528695228377429 0 0.57134283277699616 0.25528695228377429 0 0.71335089116972128 0.25578338314493299 0 0.64223892332544308 0.130274960827549 0 0.6428589620457259 0.38113747419351418 0 0.57134283277699616 0.25528695228377429 0 0.71335089116972128 0.25578338314493299 0 0.50000265683637624 0.3797679478844822 0 0.6428589620457259 0.38113747419351418 0 0.57134283277699616 0.25528695228377429 0 0.6428589620457259 0.38113747419351418 0 0.71335089116972128 0.25578338314493299 0 0.78571428571267199 0.38141042586853341 0 0.71335089116972128 0.25578338314493299 0 0.64223892332544308 0.130274960827549 0 0.78018926648548503 0.12559094919453551 0 0.49927531931040692 0.1259400136946118 0 0.57134283277699616 0.25528695228377429 0 0.64223892332544308 0.130274960827549 0 0.64223892332544308 0.130274960827549 0 0.57142857142744297 0 0 0.71428571428496201 0 0 0.49927531931040692 0.1259400136946118 0 0.64223892332544308 0.130274960827549 0 0.57142857142744297 0 0 0.64223892332544308 0.130274960827549 0 0.71428571428496201 0 0 0.78018926648548503 0.12559094919453551 0 0.71428571428496201 0 0 0.78018926648548503 0.12559094919453551 0 0.85714285714248095 0 0 0.78018926648548503 0.12559094919453551 0 0.89542131320406015 0.10457868679576519 0 0.86802342313663505 0.2373869704637242 0 0.89542131320406015 0.10457868679576519 0 1 0.14285714285686729 0 0.86802342313663505 0.2373869704637242 0 0.89542131320406015 0.10457868679576519 0 0.85714285714248095 0 0 1 0 0 0.78018926648548503 0.12559094919453551 0 0.89542131320406015 0.10457868679576519 0 0.85714285714248095 0 0 0.89542131320406015 0.10457868679576519 0 1 0 0 1 0.14285714285686729 0 1 0.14285714285686729 0 1.1045786867956009 0.1045786867955263 0 1.11654878083672 0.2171580770020253 0 1 0 0 1 0.14285714285686729 0 1.1045786867956009 0.1045786867955263 0 1 0 0 1.1045786867956009 0.1045786867955263 0 1.142857142857143 0 0 1.120408926261548 0.35723491808527941 0 1 0.28571428571359381 0 1 0.42857142857032021 0 1.120408926261548 0.35723491808527941 0 1.11654878083672 0.2171580770020253 0 1 0.28571428571359381 0 1 0.14285714285686729 0 1.11654878083672 0.2171580770020253 0 1 0.28571428571359381 0 1 0.14285714285686729 0 1 0.28571428571359381 0 0.86802342313663505 0.2373869704637242 0 1 0.28571428571359381 0 0.90513725992141869 0.36710674629889062 0 1 0.42857142857032021 0 1 0.28571428571359381 0 0.90513725992141869 0.36710674629889062 0 0.86802342313663505 0.2373869704637242 0 0.90513725992141869 0.36710674629889062 0 0.86802342313663505 0.2373869704637242 0 0.78571428571267199 0.38141042586853341 0 0.71335089116972128 0.25578338314493299 0 0.78018926648548503 0.12559094919453551 0 0.86802342313663505 0.2373869704637242 0 0.71335089116972128 0.25578338314493299 0 0.86802342313663505 0.2373869704637242 0 0.78571428571267199 0.38141042586853341 0 0.71689882325258081 0.50562151542895928 0 0.78571428571267199 0.38141042586853341 0 0.87194859075778619 0.50245062087828152 0 0.71689882325258081 0.50562151542895928 0 0.87194859075778619 0.50245062087828152 0 0.7865654166374938 0.63474444568669874 0 0.90513725992141869 0.36710674629889062 0 0.87194859075778619 0.50245062087828152 0 1 0.42857142857032021 0 0.90513725992141869 0.36710674629889062 0 0.78571428571267199 0.38141042586853341 0 0.8719485907
[...]
<PointData Scalars="" Vectors="displacement," Tensors="">
<DataArray type="Float64" Name="displacement" NumberOfComponents="3" format="ascii">
-2.5195430983522588e-07 7.1828807869080827e-05 0 -3.8819080283230736e-06 0.00015195220228406191 0 -0.0028939514362392059 0.099332357312833686 0 -2.5195430983522588e-07 7.1828807869080827e-05 0 -0.0028939514362392059 0.099332357312833686 0 -6.9839076574254268e-06 0.1428339635556414 0 -3.8819080283230736e-06 0.00015195220228406191 0 -0.0028939514362392059 0.099332357312833686 0 -0.0051737438225950083 0.10724654055661798 0 -0.0028939514362392059 0.099332357312833686 0 -0.0056261515292934071 0.21708843551631982 0 -0.0051737438225950083 0.10724654055661798 0 -0.0028939514362392059 0.099332357312833686 0 -6.9839076574254268e-06 0.1428339635556414 0 -0.0056261515292934071 0.21708843551631982 0 -6.9839076574254268e-06 0.1428339635556414 0 -8.2849979837745001e-06 0.28570949351019165 0 -0.0056261515292934071 0.21708843551631982 0 -0.0047290605848232378 0.34946292779169097 0 -8.2849979837745001e-06 0.28570949351019165 0 -8.7454854453554108e-06 0.42855920091118987 0 -0.0047290605848232378 0.34946292779169097 0 -8.2849979837745001e-06 0.28570949351019165 0 -0.0056261515292934071 0.21708843551631982 0 -0.0047290605848232378 0.34946292779169097 0 -0.0056261515292934071 0.21708843551631982 0 -0.0088108000020455709 0.34083384508922371 0 -0.0056261515292934071 0.21708843551631982 0 -0.0086692544919435253 0.21963908872754986 0 -0.0051737438225950083 0.10724654055661798 0 -0.0056261515292934071 0.21708843551631982 0 -0.0088108000020455709 0.34083384508922371 0 -0.0086692544919435253 0.21963908872754986 0 -0.0088108000020455709 0.34083384508922371 0 -0.0086692544919435253 0.21963908872754986 0 -0.010170046272476205 0.33011853046855782 0 -0.0086692544919435253 0.21963908872754986 0 -0.010170046272476205 0.33011853046855782 0 -0.0090860292626427294 0.21154393353142451 0 -0.0086692544919435253 0.21963908872754986 0 -0.0060630641229618013 0.1087843174204474 0 -0.0090860292626427294 0.21154393353142451 0 -0.0086692544919435253 0.21963908872754986 0 -0.0060630641229618013 0.1087843174204474 0 -0.0051737438225950083 0.10724654055661798 0 -0.0060630641229618013 0.1087843174204474 0 -4.6868692430702541e-06 0.00012262078029871709 0 -0.0051737438225950083 0.10724654055661798 0 -0.0060630641229618013 0.1087843174204474 0 -4.6868692430702541e-06 0.00012262078029871709 0 -4.5797674223750039e-06 0.00012351768659357083 0 -3.8819080283230736e-06 0.00015195220228406191 0 -4.6868692430702541e-06 0.00012262078029871709 0 -0.0051737438225950083 0.10724654055661798 0 -0.0043463324782346954 0.61218423983428316 0 -0.0069391915041363715 0.57537134178559179 0 -0.0037783413342313593 0.71707519823723387 0 -4.9284804676264256e-06 0.71425996367082878 0 -0.0043463324782346954 0.61218423983428316 0 -0.0037783413342313593 0.71707519823723387 0 -0.0043463324782346954 0.61218423983428316 0 -1.0396978116367553e-05 0.57140996038025327 0 -0.0065049814857447751 0.47522589075944999 0 -4.9284804676264256e-06 0.71425996367082878 0 -0.0043463324782346954 0.61218423983428316 0 -1.0396978116367553e-05 0.57140996038025327 0 -0.0043463324782346954 0.61218423983428316 0 -0.0065049814857447751 0.47522589075944999 0 -0.0069391915041363715 0.57537134178559179 0 -1.0396978116367553e-05 0.57140996038025327 0 -0.0065049814857447751 0.47522589075944999 0 -8.7454854453554108e-06 0.42855920091118987 0 -0.0047290605848232378 0.34946292779169097 0 -0.0065049814857447751 0.47522589075944999 0 -8.7454854453554108e-06 0.42855920091118987 0 -0.0047290605848232378 0.34946292779169097 0 -0.0088108000020455709 0.34083384508922371 0 -0.0065049814857447751 0.47522589075944999 0 -0.0088108000020455709 0.34083384508922371 0 -0.0065049814857447751 0.47522589075944999 0 -0.0091858973459346283 0.4485073553656177 0 -0.010170046272476205 0.33011853046855782 0 -0.0091858973459346283 0.4485073553656177 0 -0.00875122828814834 0.42700776322737216 0 -0.0088108000020455709 0.34083384508922371 0 -0.010170046272476205 0.33011853046855782 0 -0.0091858973459346283 0.4485073553656177 0 -0.0091858973459346283 0.4485073553656177 0 -0.0061989785605340627 0.54064432236411741 0 -0.00875122828814834 0.42700776322737216 0 -0.0065049814857447751 0.47522589075944999 0 -0.0091858973459346283 0.4485073553656177 0 -0.0069391915041363715 0.57537134178559179 0 -0.0091858973459346283 0.4485073553656177 0 -0.0069391915041363715 0.57537134178559179 0 -0.0061989785605340627 0.54064432236411741 0 -0.0061989785605340627 0.54064432236411741 0 0.00083153195824331265 0.62469878664865719 0 -0.0017974526632010671 0.65707215587051548 0 -0.0069391915041363715 0.57537134178559179 0 -0.0061989785605340627 0.54064432236411741 0 -0.0017974526632010671 0.65707215587051548 0 -0.0069391915041363715 0.57537134178559179 0 -0.0017974526632010671 0.65707215587051548 0 -0.0037783413342313593 0.71707519823723387 0 -0.0043542936583778769 0.51688205562682754 0 0.0025812080521479602 0.60314857075975103 0 0.00083153195824331265 0.62469878664865719 0 -0.0061989785605340627 0.54064432236411741 0 -0.0043542936583778769 0.51688205562682754 0 0.00083153195824331265 0.62469878664865719 0 -0.0061989785605340627 0.54064432236411741 0 -0.0043542936583778769 0.51688205562682754 0 -0.00875122828814834 0.42700776322737216 0 -0.0043542936583778769 0.51688205562682754 0 -0.00875122828814834 0.42700776322737216 0 -0.0071486208205673793 0.4109350714274243 0 -0.010170046272476205 0.33011853046855782 0 -0.00875122828814834 0.42700776322737216 0 -0.0095094769091501972 0.31635524645205543 0 -0.00875122828814834 0.42700776322737216 0 -0.0095094769091501972 0.31635524645205543 0 -0.0071486208205673793 0.4109350714274243 0 -0.0079186556871761547 0.30695623661058541 0 -0.0052799273514959688 0.39970693535251844 0 -0.0071486208205673793 0.4109350714274243 0 -0.0095094769091501972 0.31635524645205543 0 -0.0079186556871761547 0.30695623661058541 0 -0.0071486208205673793 0.4109350714274243 0 -0.0079186556871761547 0.30695623661058541 0 -0.0052799273514959688 0.39970693535251844 0 -0.0061231937194936277 0.29966979901721896 0 -0.0052799273514959688 0.39970693535251844 0 -0.0071486208205673793 0.4109350714274243 0 -0.0025704516131034153 0.50077001255045994 0 -0.0043542936583778769 0.51688205562682754 0 -0.0071486208205673793 0.4109350714274243 0 -0.0025704516131034153 0.50077001255045994 0 -0.0052799273514959688 0.39970693535251844 0 -0.0025704516131034153 0.50077001255045994 0 -0.0010262860486205435 0.49422321840519712 0 -0.0025704516131034153 0.50077001255045994 0 -0.0010262860486205435 0.49422321840519712 0 0.0036155438844527499 0.59154528522446137 0 -0.0043542936583778769 0.51688205562682754 0 -0.0025704516131034153 0.50077001255045994 0 0.0025812080521479602 0.60314857075975103 0 -0.0025704516131034153 0.50077001255045994 0 0.0025812080521479602 0.60314857075975103 0 0.0036155438844527499 0.59154528522446137 0 -0.0057845332382914644 0.10574224419208204 0 -4.5797674223750039e-06 0.00012351768659357083 0 -3.9478940347258108e-06 0.00011755981197511177 0 -0.0060630641229618013 0.1087843174204474 0 -0.0057845332382914644 0.10574224419208204 0 -4.5797674223750039e-06 0.00012351768659357083 0 -0.0060630641229618013 0.1087843174204474 0 -0.0057845332382914644 0.10574224419208204 0 -0.0090860292626427294 0.21154393353142451 0 -0.010170046272476205 0.33011853046855782 0 -0.0095094769091501972 0.31635524645205543 0 -0.0090860292626427294 0.21154393353142451 0 -0.0095094769091501972 0.31635524645205543 0 -0.0090860292626427294 0.21154393353142451 0 -0.0082731028954185649 0.20977474868499352 0 -0.0057845332382914644 0.10574224419208204 0 -0.0090860292626427294 0.21154393353142451 0 -0.0082731028954185649 0.20977474868499352 0 -0.0082731028954185649 0.20977474868499352 0 -0.0067941002882721865 0.20412694780813001 0 -0.0050975869848166539 0.1058087273923574 0 -0.0079186556871761547 0.30695623661058541 0 -0.0082731028954185649 0.20977474868499352 0 -0.0067941002882721865 0.20412694780813001 0 -0.0095094769091501972 0.31635524645205543 0 -0.0079186556871761547 0.30695623661058541 0 -0.0082731028954185649 0.20977474868499352 0 -0.0079186556871761547 0.30695623661058541 0 -0.0067941002882721865 0.20412694780813001 0 -0.0061231937194936277 0.29966979901721896 0 -0.0067941002882721865 0.20412694780813001 0 -0.0050975869848166539 0.1058087273923574 0 -0.0040038205446217027 0.099563375973369311 0 -0.0057845332382914644 0.10574224419208204 0 -0.0082731028954185649 0.20977474868499352 0 -0.0050975869848166539 0.1058087273923574 0 -0.0050975869848166539 0.1058087273923574 0 -3.9478940347258108e-06 0.00011755981197511177 0 -3.1644262467099765e-06 0.00011463498420986373 0 -0.0057845332382914644 0.10574224419208204 0 -0.0050975869848166539 0.1058087273923574 0 -3.9478940347258108e-06 0.00011755981197511177 0 -0.0050975869848166539 0.1058087273923574 0 -3.1644262467099765e-06 0.00011463498420986373 0 -0.0040038205446217027 0.099563375973369311 0 -3.1644262467099765e-06 0.00011463498420986373 0 -0.0040038205446217027 0.099563375973369311 0 -2.1943671926223682e-06 0.00011194866809466475 0 -0.0040038205446217027 0.099563375973369311 0 -0.0026802281481458187 0.081610004517312928 0 -0.0049487331143058593 0.18512727682522406 0 -0.0026802281481458187 0.081610004517312928 0 -0.0027016536740013461 0.11013546176508314 0 -0.0049487331143058593 0.18512727682522406 0 -0.0026802281481458187 0.081610004517312928 0 -2.1943671926223682e-06 0.00011194866809466475 0 -1.877507767545357e-06 0.00011035042045841705 0 -0.0040038205446217027 0.099563375973369311 0 -0.0026802281481458187 0.081610004517312928 0 -2.1943671926223682e-06 0.00011194866809466475 0 -0.0026802281481458187 0.081610004517312928 0 -1.877507767545357e-06 0.00011035042045841705 0 -0.0027016536740013461 0.11013546176508314 0 -0.0027016536740013461 0.11013546176508314 0 -0.001576283557393431 0.080100429760673914 0 -0.0025113166084091095 0.16575269864257561 0 -1.877507767545357e-06 0.00011035042045841705 0 -0.0027016536740013461 0.11013546176508314 0 -0.001576283557393431 0.080100429760673914 0 -1.877507767545357e-06 0.00011035042045841705 0 -0.001576283557393431 0.080100429760673914 0 -1.1538514405914936e-06 0.00010911699421236707 0 -0.0026415261542082021 0.27187081125285439 0 -0.0038089615664481657 0.21960804965267861 0 -0.0033229321563928867 0.32834655715345068 0 -0.0026415261542082021 0.27187081125285439 0 -0.0025113166084091095 0.16575269864257561 0 -0.0038089615664481657 0.21960804965267861 0 -0.0027016536740013461 0.11013546176508314 0 -0.0025113166084091095 0.16575269864257561 0 -0.0038089615664481657 0.21960804965267861 0 -0.0027016536740013461 0.11013546176508314 0 -0.0038089615664481657 0.21960804965267861 0 -0.0049487331143058593 0.18512727682522406 0 -0.0038089615664481657 0.21960804965267861 0 -0.0047046224197829752 0.28419579331715766 0 -0.0033229321563928867 0.32834655715345068 0 -0.0038089615664481657 0.21960804965267861 0 -0.0047046224197829752 0.28419579331715766 0 -0.0049487331143058593 0.18512727682522406 0 -0.0047046224197829752 0.28419579331715766 0 -0.0049487331143058593 0.18512727682522406 0 -0.0061231937194936277 0.29966979901721896 0 -0.0067941002882721865 0.20412694780813001 0 -0.0040038205446217027 0.099563375973369311 0 -0.0049487331143058593 0.18512727682522406 0 -0.0067941002882721865 0.20412694780813001 0 -0.0049487331143058593 0.18512727682522406 0 -0.0061231937194936277 0.29966979901721896 0 -0.0052799273514959688 0.39970693535251844 0 -0.0061231937194936277 0.29966979901721896 0 -0.0036109449744155591 0.38885659780408754 0 -0.0052799273514959688 0.39970693535251844 0 -0.0036109449744155591 0.38885659780408754 0 -0.0010262860486205435 0.49422321840519712 0 -0.0047046224197829752 0.28419579331715766 0 -0.0036109449744155591 0.38885659780408754 0 -0.0033229321563928867 0.32834655715345068 0 -0.0047046224197829752 0.28419579331715766 0 -0.0061231937194936277 0.29966979901721896 0 -0.0036109449744155591 0.38885659780408754 0 -0.0010262860486205435 0.49422321840519712 0 0.0043052513855390342 0.59318859378932609 0 0.0036155438844527499 0.59154528522446137 0 -0.0036109449744155591 0.38885659780408754 0 -0.00014942049446500227 0.4911308372245618 0 -0.0012589223729001938 0.43647163497187591 0 -0.0036109449744155591 0.38885659780408754 0 -0.0010262860486205435 0.49422321840519712 0 -0.00014942049446500227 0.4911308372245618 0 -0.00014942049446500227 0.4911308372245618 0 0.0020591620490141875 0.54397308107354958 0 0.0043052513855390342 0.59318859378932609 0 -0.0010262860486205435 0.49422321840519712 0 -0.00014942049446500227 0.4911308372245618 0 0.0043052513855390342 0.59318859378932609 0 -0.00014942049446500227 0.4911308372245618 0 0.0020591620490141875 0.54397308107354958 0 -0.0012589223729001938 0.43647163497187591 0 -0.0012589223729001938 0.43647163497187591 0 0.00042484483337274821 0.48634121709893607 0 -0.0016043305394520125 0.38032452716477549 0 0.0020591620490141875 0.54397308107354958 0 -0.0012589223729001938 0.43647163497187591 0 0.00042484483337274821 0.48634121709893607 0 0.0020591620490141875 0.54397308107354958 0 0.00042484483337274821 0.48634121709893607 0 0.0031916747411697569 0.58986103260169531 0 -0.0036109449744155591 0.38885659780408754 0 -0.0012589223729001938 0.43647163497187591 0 -0.0033229321563928867 0.32834655715345068 0 -0.0012589223729001938 0.43647163497187591 0 -0.0033229321563928867 0.32834655715345068 0 -0.0016043305394520125 0.38032452716477549 0 -0.0026415261542082021 0.27187081125285439 0 -0.0033229321563928867 0.32834655715345068 0 -0.0016043305394520125 0.38032452716477549 0 -0.0026415261542082021 0.27187081125285439 0 -0.0016043305394520125 0.38032452716477549 0 -0.0014222738880595145 0.32338479439352319 0 -0.0016043305394520125 0.38032452716477549 0 -0.0014222738880595145 0.32338479439352319 0 -0.00035385871089957708 0.43123848470366849 0 -0.0014222738880595145 0.32338479439352319 0 -0.00035385871089957708 0.43123848470366849 0 -0.0004636943620153095 0.37482912245264183 0 0.00042484483337274821 0.48634121709893607 0 0.001278757488174877 0.53741321757677418 0 0.0031916747411697569 0.58986103260169531 0 0.00042484483337274821 0.48634121709893607 0 -0.0016043305394520125 0.38032452716477549 0 -0.00035385871089957708 0.43123848470366849 0 0.00042484483337274821 0.48634121709893607 0 -0.00035385871089957708 0.43123848470366849 0 0.001278757488174877 0.53741321757677418 0 -0.00035385871089957708 0.43123848470366849 0 0.001278757488174877 0.53741321757677418 0 0.00023227404000694901 0.48323712737876234 0 0.001278757488174877 0.53741321757677418 0 0.00023227404000694901 0.48323712737876234 0 0.0011708321311142773 0.58906258623797048 0 -0.00035385871089957708 0.43123848470366849 0 0.00023227404000694901 0.48323712737876234 0 -0.0004636943620153095 0.37482912245264183 0 0.00023227404000694901 0.48323712737876234 0 -1.1221354195411929e-05 0.42933054064807408 0 3.9747530403937275e-06 0.53656745122807792 0 0.00023227404000694901 0.48323712737876234 0 -1.1221354195411929e-05 0.42933054064807408 0 -0.0004636943620153095 0.37482912245264183 0 0.00023227404000694901 0.48323712737876234 0 3.9747530403937275e-06 0.53656745122807792 0 0.0011708321311142773 0.58906258623797048 0 -0.0014222738880595145 0.32338479439352319 0 -0.0004636943620153095 0.37482912245264183 0 -0.00083304969644482497 0.26709966989756401 0 -1.1221354195411929e-05 0.42933054064807408 0 -0.0004636943620153095 0.37482912245264183 0 -2.5587303842746106e-05 0.32070807562243281 0 -0.0004636943620153095 0.37482912245264183 0 -2.5587303842746106e-05 0.32070807562243281 0 -0.00083304969644482497 0.26709966989756401 0 -2.5587303842746106e-05 0.32070807562243281 0 -0.00083304969644482497 0.26709966989756401 0 -1.9608828124697908e-05 0.20973676088438542 0 -0.00083304969644482497 0.26709966989756401 0 -0.00080205121414367157 0.15771071607761011 0 -0.0017570929098961463 0.21460086417173568 0 -0.00080205121414367157 0.15771071607761011 0 -1.9608828124697908e-05 0.20973676088438542 0 5.3233905550794782e-06 0.095709047086417212 0 -0.00083304969644482497 0.26709966989756401 0 -0.00080205121414367157 0.15771071607761011 0 -1.9608828124697908e-05 0.20973676088438542 0 5.3233905550794782e-06 0.095709047086417212 0 -3.911555922864169e-07 0.00010811710766328185 0 -0.00046029045304538818 0.067000807291572345 0 5.3233905550794782e-06 0.095709047086417212 0 -3.911555922864169e-07 0.00010811710766328185 0 3.8910025644517848e-07 0.0001080981710697987 0 -3.911555922864169e-07 0.00010811710766328185 0 -0.00046029045304538818 0.067000807291572345 0 -4.6728452241076919e-07 0.00010838173882602147 0 -0.00080205121414367157 0.15771071607761011 0 -0.00046029045304538818 0.067000807291572345 0 -0.0012605736585499681 0.097483648092085651 0 -0.00080205121414367157 0.15771071607761011 0 5.3233905550794782e-06 0.095709047086417212 0 -0.00046029045304538818 0.067000807291572345 0 -0.0012605736585499681 0.097483648092085651 0 -4.6728452241076919e-07 0.00010838173882602147 0 -1.1538514405914936e-06 0.00010911699421236707 0 -0.00046029045304538818 0.067000807291572345 0 -0.0012605736585499681 0.097483648092085651 0 -4.6728452241076919e-07 0.00010838173882602147 0 -0.001576283557393431 0.080100429760673914 0 -0.0012605736585499681 0.097483648092085651 0 -1.1538514405914936e-06 0.00010911699421236707 0 -0.001576283557393431 0.080100429760673914 0 -0.0025113166084091095 0.16575269864257561 0 -0.0012605736585499681 0.097483648092085651 0 -0.0025113166084091095 0.16575269864257561 0 -0.0012605736585499681 0.097483648092085651 0 -0.0017570929098961463 0.21460086417173568 0 -0.0026415261542082021 0.27187081125285439 0 -0.0014222738880595145 0.32338479439352319 0 -0.0017570929098961463 0.21460086417173568 0 -0.0026415261542082021 0.27187081125285439 0 -0.0025113166084091095 0.16575269864257561 0 -0.0017570929098961463 0.21460086417173568 0 -0.0014222738880595145 0.32338479439352319 0 -0.00083304969644482497 0.26709966989756401 0 -0.0017570929098961463 0.21460086417173568 0 -0.00080205121414367157 0.15771071607761011 0 -0.0012605736585499681 0.097483648092085651 0 -0.0017570929098961463 0.21460086417173568 0 0.0070552036734041288 1.1286055584733494 0 0.003998243753047667 0.94535169404181085 0 0.0078776167409365834 0.93502800342196191 0 0.0070552036734041288 1.1286055584733494 0 0.011986615496852647 1.1049561853605674 0 0.0078776167409365834 0.93502800342196191 0 0.011986615496852647 1.1049561853605674 0 0.0078776167409365834 0.93502800342196191 0 0.010719971314009683 0.91079114970989528 0 0.0070552036734041288 1.1286055584733494 0 0.011986615496852647 1.1049561853605674 0 0.01027093369662265 1.3227829492722665 0 0.011986615496852647 1.1049561853605674 0 0.01027093369662265 1.3227829492722665 0 0.01430685049143326 1.2873277203916202 0 0.01027093369662265 1.3227829492722665 0 0.013784597116491997 1.5027101406863188 0 0.007868202097361247 1.5076764657226325 0 0.01027093369662265 1.3227829492722665 0 0.01430685049143326 1.2873277203916202 0 0.013784597116491997 1.5027101406863188 0 0.01027093369662265 1.3227829492722665 0 0.0051420063470427263 1.3209299389083624 0 0.007868202097361247 1.5076764657226325 0 0.0070552036734041288 1.1286055584733494 0 0.01027093369662265 1.3227829492722665 0 0.0051420063470427263 1.3209299389083624 0 0.0051420063470427263 1.3209299389083624 0 0.007868202097361247 1.5076764657226325 0 0.0025787491008548206 1.507694185353222 0 0.0051420063470427263 1.3209299389083624 0 -6.2705910587147938e-05 1.3221880334131775 0 0.0025787491008548206 1.507694185353222 0 0.0051420063470427263 1.3209299389083624 0 -6.2705910587147938e-05 1.3221880334131775 0 0.0023515544660127098 1.1333316606254418 0 -6.2705910587147938e-05 1.3221880334131775 0 0.0023515544660127098 1.1333316606254418 0 -0.0024163124784928672 1.1343944866862297 0 0.0070552036734041288 1.1286055584733494 0 0.0051420063470427263 1.3209299389083624 0 0.0023515544660127098 1.1333316606254418 0 0.0070552036734041288 1.1286055584733494 0 0.0023515544660127098 1.1333316606254418 0 0.003998243753047667 0.9453