<?xml version="1.0"?>
<VTKFile type="UnstructuredGrid" version="0.1" byte_order="LittleEndian">
<UnstructuredGrid>
<Piece NumberOfPoints="3186" NumberOfCells="1062">
<Points>
<DataArray type="Float64" NumberOfComponents="3" format="ascii">
0 0 0 0.14285714285686729 0 0 0.10402057578810379 0.10402057578810379 0 0 0 0 0.10402057578810379 0.10402057578810379 0 0 0.14285714285686729 0 0.14285714285686729 0 0 0.10402057578810379 0.10402057578810379 0 0.21622614199724011 0.1170905489967794 0 0.10402057578810379 0.10402057578810379 0 0.12873413335214179 0.22892000827465461 0 0.21622614199724011 0.1170905489967794 0 0.10402057578810379 0.10402057578810379 0 0 0.14285714285686729 0 0.12873413335214179 0.22892000827465461 0 0 0.14285714285686729 0 0 0.28571428571359381 0 0.12873413335214179 0.22892000827465461 0 0.093737460955887239 0.36334567880837831 0 0 0.28571428571359381 0 0 0.42857142857032021 0 0.093737460955887239 0.36334567880837831 0 0 0.28571428571359381 0 0.12873413335214179 0.22892000827465461 0 0.093737460955887239 0.36334567880837831 0 0.12873413335214179 0.22892000827465461 0 0.21341038379882901 0.37169997079090128 0 0.12873413335214179 0.22892000827465461 0 0.28183877965613813 0.2453094238274868 0 0.21622614199724011 0.1170905489967794 0 0.12873413335214179 0.22892000827465461 0 0.21341038379882901 0.37169997079090128 0 0.28183877965613813 0.2453094238274868 0 0.21341038379882901 0.37169997079090128 0 0.28183877965613813 0.2453094238274868 0 0.35714458040172548 0.37949340689832922 0 0.28183877965613813 0.2453094238274868 0 0.35714458040172548 0.37949340689832922 0 0.42857142856968189 0.24782843958009351 0 0.28183877965613813 0.2453094238274868 0 0.35419193461659548 0.1242932860904311 0 0.42857142856968189 0.24782843958009351 0 0.28183877965613813 0.2453094238274868 0 0.35419193461659548 0.1242932860904311 0 0.21622614199724011 0.1170905489967794 0 0.35419193461659548 0.1242932860904311 0 0.28571428571359381 0 0 0.21622614199724011 0.1170905489967794 0 0.35419193461659548 0.1242932860904311 0 0.28571428571359381 0 0 0.42857142857032021 0 0 0.14285714285686729 0 0 0.28571428571359381 0 0 0.21622614199724011 0.1170905489967794 0 0.091975849439628388 0.63906079561326345 0 0.21183497469564019 0.63320029487793694 0 0.12868163055416221 0.76697400229767487 0 0 0.71428571428496201 0 0.091975849439628388 0.63906079561326345 0 0.12868163055416221 0.76697400229767487 0 0.091975849439628388 0.63906079561326345 0 0 0.57142857142744297 0 0.12654278762846541 0.50182270069242174 0 0 0.71428571428496201 0 0.091975849439628388 0.63906079561326345 0 0 0.57142857142744297 0 0.091975849439628388 0.63906079561326345 0 0.12654278762846541 0.50182270069242174 0 0.21183497469564019 0.63320029487793694 0 0 0.57142857142744297 0 0.12654278762846541 0.50182270069242174 0 0 0.42857142857032021 0 0.093737460955887239 0.36334567880837831 0 0.12654278762846541 0.50182270069242174 0 0 0.42857142857032021 0 0.093737460955887239 0.36334567880837831 0 0.21341038379882901 0.37169997079090128 0 0.12654278762846541 0.50182270069242174 0 0.21341038379882901 0.37169997079090128 0 0.12654278762846541 0.50182270069242174 0 0.28571428571288859 0.50512834069527579 0 0.35714458040172548 0.37949340689832922 0 0.28571428571288859 0.50512834069527579 0 0.42857911129460902 0.5051327763182708 0 0.21341038379882901 0.37169997079090128 0 0.35714458040172548 0.37949340689832922 0 0.28571428571288859 0.50512834069527579 0 0.28571428571288859 0.50512834069527579 0 0.35657912408519199 0.6297632267709089 0 0.42857911129460902 0.5051327763182708 0 0.12654278762846541 0.50182270069242174 0 0.28571428571288859 0.50512834069527579 0 0.21183497469564019 0.63320029487793694 0 0.28571428571288859 0.50512834069527579 0 0.21183497469564019 0.63320029487793694 0 0.35657912408519199 0.6297632267709089 0 0.35657912408519199 0.6297632267709089 0 0.42876602422768972 0.75267652020288756 0 0.28454251053718921 0.75357332720455328 0 0.21183497469564019 0.63320029487793694 0 0.35657912408519199 0.6297632267709089 0 0.28454251053718921 0.75357332720455328 0 0.21183497469564019 0.63320029487793694 0 0.28454251053718921 0.75357332720455328 0 0.12868163055416221 0.76697400229767487 0 0.50003783804313584 0.62886810132652948 0 0.57146100403685018 0.75258289532342593 0 0.42876602422768972 0.75267652020288756 0 0.35657912408519199 0.6297632267709089 0 0.50003783804313584 0.62886810132652948 0 0.42876602422768972 0.75267652020288756 0 0.35657912408519199 0.6297632267709089 0 0.50003783804313584 0.62886810132652948 0 0.42857911129460902 0.5051327763182708 0 0.50003783804313584 0.62886810132652948 0 0.42857911129460902 0.5051327763182708 0 0.57143682973041188 0.50513310862866234 0 0.35714458040172548 0.37949340689832922 0 0.42857911129460902 0.5051327763182708 0 0.50000265683637624 0.3797679478844822 0 0.42857911129460902 0.5051327763182708 0 0.50000265683637624 0.3797679478844822 0 0.57143682973041188 0.50513310862866234 0 0.6428589620457259 0.38113747419351418 0 0.71689882325258081 0.50562151542895928 0 0.57143682973041188 0.50513310862866234 0 0.50000265683637624 0.3797679478844822 0 0.6428589620457259 0.38113747419351418 0 0.57143682973041188 0.50513310862866234 0 0.6428589620457259 0.38113747419351418 0 0.71689882325258081 0.50562151542895928 0 0.78571428571267199 0.38141042586853341 0 0.71689882325258081 0.50562151542895928 0 0.57143682973041188 0.50513310862866234 0 0.6428688546313952 0.62885301731806609 0 0.50003783804313584 0.62886810132652948 0 0.57143682973041188 0.50513310862866234 0 0.6428688546313952 0.62885301731806609 0 0.71689882325258081 0.50562151542895928 0 0.6428688546313952 0.62885301731806609 0 0.7865654166374938 0.63474444568669874 0 0.6428688546313952 0.62885301731806609 0 0.7865654166374938 0.63474444568669874 0 0.71537080136980369 0.7565812122385458 0 0.50003783804313584 0.62886810132652948 0 0.6428688546313952 0.62885301731806609 0 0.57146100403685018 0.75258289532342593 0 0.6428688546313952 0.62885301731806609 0 0.57146100403685018 0.75258289532342593 0 0.71537080136980369 0.7565812122385458 0 0.49927531931040692 0.1259400136946118 0 0.42857142857032021 0 0 0.57142857142744297 0 0 0.35419193461659548 0.1242932860904311 0 0.49927531931040692 0.1259400136946118 0 0.42857142857032021 0 0 0.35419193461659548 0.1242932860904311 0 0.49927531931040692 0.1259400136946118 0 0.42857142856968189 0.24782843958009351 0 0.35714458040172548 0.37949340689832922 0 0.50000265683637624 0.3797679478844822 0 0.42857142856968189 0.24782843958009351 0 0.50000265683637624 0.3797679478844822 0 0.42857142856968189 0.24782843958009351 0 0.57134283277699616 0.25528695228377429 0 0.49927531931040692 0.1259400136946118 0 0.42857142856968189 0.24782843958009351 0 0.57134283277699616 0.25528695228377429 0 0.57134283277699616 0.25528695228377429 0 0.71335089116972128 0.25578338314493299 0 0.64223892332544308 0.130274960827549 0 0.6428589620457259 0.38113747419351418 0 0.57134283277699616 0.25528695228377429 0 0.71335089116972128 0.25578338314493299 0 0.50000265683637624 0.3797679478844822 0 0.6428589620457259 0.38113747419351418 0 0.57134283277699616 0.25528695228377429 0 0.6428589620457259 0.38113747419351418 0 0.71335089116972128 0.25578338314493299 0 0.78571428571267199 0.38141042586853341 0 0.71335089116972128 0.25578338314493299 0 0.64223892332544308 0.130274960827549 0 0.78018926648548503 0.12559094919453551 0 0.49927531931040692 0.1259400136946118 0 0.57134283277699616 0.25528695228377429 0 0.64223892332544308 0.130274960827549 0 0.64223892332544308 0.130274960827549 0 0.57142857142744297 0 0 0.71428571428496201 0 0 0.49927531931040692 0.1259400136946118 0 0.64223892332544308 0.130274960827549 0 0.57142857142744297 0 0 0.64223892332544308 0.130274960827549 0 0.71428571428496201 0 0 0.78018926648548503 0.12559094919453551 0 0.71428571428496201 0 0 0.78018926648548503 0.12559094919453551 0 0.85714285714248095 0 0 0.78018926648548503 0.12559094919453551 0 0.89542131320406015 0.10457868679576519 0 0.86802342313663505 0.2373869704637242 0 0.89542131320406015 0.10457868679576519 0 1 0.14285714285686729 0 0.86802342313663505 0.2373869704637242 0 0.89542131320406015 0.10457868679576519 0 0.85714285714248095 0 0 1 0 0 0.78018926648548503 0.12559094919453551 0 0.89542131320406015 0.10457868679576519 0 0.85714285714248095 0 0 0.89542131320406015 0.10457868679576519 0 1 0 0 1 0.14285714285686729 0 1 0.14285714285686729 0 1.1045786867956009 0.1045786867955263 0 1.11654878083672 0.2171580770020253 0 1 0 0 1 0.14285714285686729 0 1.1045786867956009 0.1045786867955263 0 1 0 0 1.1045786867956009 0.1045786867955263 0 1.142857142857143 0 0 1.120408926261548 0.35723491808527941 0 1 0.28571428571359381 0 1 0.42857142857032021 0 1.120408926261548 0.35723491808527941 0 1.11654878083672 0.2171580770020253 0 1 0.28571428571359381 0 1 0.14285714285686729 0 1.11654878083672 0.2171580770020253 0 1 0.28571428571359381 0 1 0.14285714285686729 0 1 0.28571428571359381 0 0.86802342313663505 0.2373869704637242 0 1 0.28571428571359381 0 0.90513725992141869 0.36710674629889062 0 1 0.42857142857032021 0 1 0.28571428571359381 0 0.90513725992141869 0.36710674629889062 0 0.86802342313663505 0.2373869704637242 0 0.90513725992141869 0.36710674629889062 0 0.86802342313663505 0.2373869704637242 0 0.78571428571267199 0.38141042586853341 0 0.71335089116972128 0.25578338314493299 0 0.78018926648548503 0.12559094919453551 0 0.86802342313663505 0.2373869704637242 0 0.71335089116972128 0.25578338314493299 0 0.86802342313663505 0.2373869704637242 0 0.78571428571267199 0.38141042586853341 0 0.71689882325258081 0.50562151542895928 0 0.78571428571267199 0.38141042586853341 0 0.87194859075778619 0.50245062087828152 0 0.71689882325258081 0.50562151542895928 0 0.87194859075778619 0.50245062087828152 0 0.7865654166374938 0.63474444568669874 0 0.90513725992141869 0.36710674629889062 0 0.87194859075778619 0.50245062087828152 0 1 0.42857142857032021 0 0.90513725992141869 0.36710674629889062 0 0.78571428571267199 0.38141042586853341 0 0.8719485907
[...]
<PointData Scalars="" Vectors="displacement," Tensors="">
<DataArray type="Float64" Name="displacement" NumberOfComponents="3" format="ascii">
-3.7059260770282688e-07 7.1816539788432707e-05 0 -1.9580268442632461e-06 0.00015524640332515241 0 -0.0012808936262067748 0.10080464340749801 0 -3.7059260770282688e-07 7.1816539788432707e-05 0 -0.0012808936262067748 0.10080464340749801 0 -3.5103429136786892e-06 0.14283561489851448 0 -1.9580268442632461e-06 0.00015524640332515241 0 -0.0012808936262067748 0.10080464340749801 0 -0.001720714487107901 0.11046080580690293 0 -0.0012808936262067748 0.10080464340749801 0 -0.0022937323276171363 0.22025996382176768 0 -0.001720714487107901 0.11046080580690293 0 -0.0012808936262067748 0.10080464340749801 0 -3.5103429136786892e-06 0.14283561489851448 0 -0.0022937323276171363 0.22025996382176768 0 -3.5103429136786892e-06 0.14283561489851448 0 -4.1193026218621827e-06 0.2857116806770012 0 -0.0022937323276171363 0.22025996382176768 0 -0.0019745023115158565 0.35233303739881972 0 -4.1193026218621827e-06 0.2857116806770012 0 -4.4573970866321268e-06 0.42856140331739506 0 -0.0019745023115158565 0.35233303739881972 0 -4.1193026218621827e-06 0.2857116806770012 0 -0.0022937323276171363 0.22025996382176768 0 -0.0019745023115158565 0.35233303739881972 0 -0.0022937323276171363 0.22025996382176768 0 -0.0025503449775265558 0.34805190663893931 0 -0.0022937323276171363 0.22025996382176768 0 -0.0015443589707701373 0.2272542870693029 0 -0.001720714487107901 0.11046080580690293 0 -0.0022937323276171363 0.22025996382176768 0 -0.0025503449775265558 0.34805190663893931 0 -0.0015443589707701373 0.2272542870693029 0 -0.0025503449775265558 0.34805190663893931 0 -0.0015443589707701373 0.2272542870693029 0 0.00027446624119932745 0.34416119709943138 0 -0.0015443589707701373 0.2272542870693029 0 0.00027446624119932745 0.34416119709943138 0 0.0014692225691340783 0.22460528052454398 0 -0.0015443589707701373 0.2272542870693029 0 -0.00055571298741988651 0.11438677071269432 0 0.0014692225691340783 0.22460528052454398 0 -0.0015443589707701373 0.2272542870693029 0 -0.00055571298741988651 0.11438677071269432 0 -0.001720714487107901 0.11046080580690293 0 -0.00055571298741988651 0.11438677071269432 0 -1.5949470254697477e-06 0.00012809656811604169 0 -0.001720714487107901 0.11046080580690293 0 -0.00055571298741988651 0.11438677071269432 0 -1.5949470254697477e-06 0.00012809656811604169 0 -8.753999382537932e-08 0.00013203856422667619 0 -1.9580268442632461e-06 0.00015524640332515241 0 -1.5949470254697477e-06 0.00012809656811604169 0 -0.001720714487107901 0.11046080580690293 0 -0.0029595026511280184 0.61501860345680559 0 -0.0033414345143419543 0.58350377828650468 0 -0.0039730237863927651 0.72073042913626284 0 -3.9904227223978234e-06 0.71426173014129357 0 -0.0029595026511280184 0.61501860345680559 0 -0.0039730237863927651 0.72073042913626284 0 -0.0029595026511280184 0.61501860345680559 0 -7.429566259526866e-06 0.57141191367392707 0 -0.0031992948861305371 0.47943189810799114 0 -3.9904227223978234e-06 0.71426173014129357 0 -0.0029595026511280184 0.61501860345680559 0 -7.429566259526866e-06 0.57141191367392707 0 -0.0029595026511280184 0.61501860345680559 0 -0.0031992948861305371 0.47943189810799114 0 -0.0033414345143419543 0.58350377828650468 0 -7.429566259526866e-06 0.57141191367392707 0 -0.0031992948861305371 0.47943189810799114 0 -4.4573970866321268e-06 0.42856140331739506 0 -0.0019745023115158565 0.35233303739881972 0 -0.0031992948861305371 0.47943189810799114 0 -4.4573970866321268e-06 0.42856140331739506 0 -0.0019745023115158565 0.35233303739881972 0 -0.0025503449775265558 0.34805190663893931 0 -0.0031992948861305371 0.47943189810799114 0 -0.0025503449775265558 0.34805190663893931 0 -0.0031992948861305371 0.47943189810799114 0 -0.0015338917084230246 0.46040382461614249 0 0.00027446624119932745 0.34416119709943138 0 -0.0015338917084230246 0.46040382461614249 0 0.0032469458675476121 0.44886787997630212 0 -0.0025503449775265558 0.34805190663893931 0 0.00027446624119932745 0.34416119709943138 0 -0.0015338917084230246 0.46040382461614249 0 -0.0015338917084230246 0.46040382461614249 0 0.00071554176221264379 0.55825556570084589 0 0.0032469458675476121 0.44886787997630212 0 -0.0031992948861305371 0.47943189810799114 0 -0.0015338917084230246 0.46040382461614249 0 -0.0033414345143419543 0.58350377828650468 0 -0.0015338917084230246 0.46040382461614249 0 -0.0033414345143419543 0.58350377828650468 0 0.00071554176221264379 0.55825556570084589 0 0.00071554176221264379 0.55825556570084589 0 0.0037103253451451108 0.64927895807052882 0 -0.00082947091069830584 0.66925057509256225 0 -0.0033414345143419543 0.58350377828650468 0 0.00071554176221264379 0.55825556570084589 0 -0.00082947091069830584 0.66925057509256225 0 -0.0033414345143419543 0.58350377828650468 0 -0.00082947091069830584 0.66925057509256225 0 -0.0039730237863927651 0.72073042913626284 0 0.0067220302559872248 0.54841078482534034 0 0.0088514185429581643 0.64627277086741319 0 0.0037103253451451108 0.64927895807052882 0 0.00071554176221264379 0.55825556570084589 0 0.0067220302559872248 0.54841078482534034 0 0.0037103253451451108 0.64927895807052882 0 0.00071554176221264379 0.55825556570084589 0 0.0067220302559872248 0.54841078482534034 0 0.0032469458675476121 0.44886787997630212 0 0.0067220302559872248 0.54841078482534034 0 0.0032469458675476121 0.44886787997630212 0 0.0095058471102112928 0.44659000624194378 0 0.00027446624119932745 0.34416119709943138 0 0.0032469458675476121 0.44886787997630212 0 0.005081750390333325 0.33949216981879837 0 0.0032469458675476121 0.44886787997630212 0 0.005081750390333325 0.33949216981879837 0 0.0095058471102112928 0.44659000624194378 0 0.010570476732951511 0.34201105243868235 0 0.0159207205535788 0.45381589502729458 0 0.0095058471102112928 0.44659000624194378 0 0.005081750390333325 0.33949216981879837 0 0.010570476732951511 0.34201105243868235 0 0.0095058471102112928 0.44659000624194378 0 0.010570476732951511 0.34201105243868235 0 0.0159207205535788 0.45381589502729458 0 0.015334597384964659 0.34880274862946681 0 0.0159207205535788 0.45381589502729458 0 0.0095058471102112928 0.44659000624194378 0 0.013575743261935285 0.55204962214187603 0 0.0067220302559872248 0.54841078482534034 0 0.0095058471102112928 0.44659000624194378 0 0.013575743261935285 0.55204962214187603 0 0.0159207205535788 0.45381589502729458 0 0.013575743261935285 0.55204962214187603 0 0.020302756685892095 0.57277343915874024 0 0.013575743261935285 0.55204962214187603 0 0.020302756685892095 0.57277343915874024 0 0.014873391019326257 0.66247994758504514 0 0.0067220302559872248 0.54841078482534034 0 0.013575743261935285 0.55204962214187603 0 0.0088514185429581643 0.64627277086741319 0 0.013575743261935285 0.55204962214187603 0 0.0088514185429581643 0.64627277086741319 0 0.014873391019326257 0.66247994758504514 0 0.0015970398844329685 0.11443802966288902 0 -8.753999382537932e-08 0.00013203856422667619 0 1.5610585802253614e-06 0.00012978124325840388 0 -0.00055571298741988651 0.11438677071269432 0 0.0015970398844329685 0.11443802966288902 0 -8.753999382537932e-08 0.00013203856422667619 0 -0.00055571298741988651 0.11438677071269432 0 0.0015970398844329685 0.11443802966288902 0 0.0014692225691340783 0.22460528052454398 0 0.00027446624119932745 0.34416119709943138 0 0.005081750390333325 0.33949216981879837 0 0.0014692225691340783 0.22460528052454398 0 0.005081750390333325 0.33949216981879837 0 0.0014692225691340783 0.22460528052454398 0 0.0055064181923849369 0.23011109461479817 0 0.0015970398844329685 0.11443802966288902 0 0.0014692225691340783 0.22460528052454398 0 0.0055064181923849369 0.23011109461479817 0 0.0055064181923849369 0.23011109461479817 0 0.0093553936685101605 0.23280278344090391 0 0.004044027793184227 0.11859757885777303 0 0.010570476732951511 0.34201105243868235 0 0.0055064181923849369 0.23011109461479817 0 0.0093553936685101605 0.23280278344090391 0 0.005081750390333325 0.33949216981879837 0 0.010570476732951511 0.34201105243868235 0 0.0055064181923849369 0.23011109461479817 0 0.010570476732951511 0.34201105243868235 0 0.0093553936685101605 0.23280278344090391 0 0.015334597384964659 0.34880274862946681 0 0.0093553936685101605 0.23280278344090391 0 0.004044027793184227 0.11859757885777303 0 0.005784481224846926 0.11580504678574438 0 0.0015970398844329685 0.11443802966288902 0 0.0055064181923849369 0.23011109461479817 0 0.004044027793184227 0.11859757885777303 0 0.004044027793184227 0.11859757885777303 0 1.5610585802253614e-06 0.00012978124325840388 0 3.3953632641673016e-06 0.0001310832522720277 0 0.0015970398844329685 0.11443802966288902 0 0.004044027793184227 0.11859757885777303 0 1.5610585802253614e-06 0.00012978124325840388 0 0.004044027793184227 0.11859757885777303 0 3.3953632641673016e-06 0.0001310832522720277 0 0.005784481224846926 0.11580504678574438 0 3.3953632641673016e-06 0.0001310832522720277 0 0.005784481224846926 0.11580504678574438 0 3.9155869367467522e-06 0.00013346926201539055 0 0.005784481224846926 0.11580504678574438 0 0.0056053524023375965 0.097717688601886149 0 0.011690520853611127 0.22079524363157618 0 0.0056053524023375965 0.097717688601886149 0 0.0082236415587937806 0.13483138568071529 0 0.011690520853611127 0.22079524363157618 0 0.0056053524023375965 0.097717688601886149 0 3.9155869367467522e-06 0.00013346926201539055 0 5.2895056939013694e-06 0.00013261645670439319 0 0.005784481224846926 0.11580504678574438 0 0.0056053524023375965 0.097717688601886149 0 3.9155869367467522e-06 0.00013346926201539055 0 0.0056053524023375965 0.097717688601886149 0 5.2895056939013694e-06 0.00013261645670439319 0 0.0082236415587937806 0.13483138568071529 0 0.0082236415587937806 0.13483138568071529 0 0.0063892059409172202 0.10288832618186797 0 0.011740063951100893 0.21518842852495282 0 5.2895056939013694e-06 0.00013261645670439319 0 0.0082236415587937806 0.13483138568071529 0 0.0063892059409172202 0.10288832618186797 0 5.2895056939013694e-06 0.00013261645670439319 0 0.0063892059409172202 0.10288832618186797 0 5.936360579937462e-06 0.00014259408613333518 0 0.01661536375981491 0.35683063875214976 0 0.014743747682829426 0.27081284445080195 0 0.019996436991868902 0.40839854730697756 0 0.01661536375981491 0.35683063875214976 0 0.011740063951100893 0.21518842852495282 0 0.014743747682829426 0.27081284445080195 0 0.0082236415587937806 0.13483138568071529 0 0.011740063951100893 0.21518842852495282 0 0.014743747682829426 0.27081284445080195 0 0.0082236415587937806 0.13483138568071529 0 0.014743747682829426 0.27081284445080195 0 0.011690520853611127 0.22079524363157618 0 0.014743747682829426 0.27081284445080195 0 0.017052989778048474 0.34299836400024653 0 0.019996436991868902 0.40839854730697756 0 0.014743747682829426 0.27081284445080195 0 0.017052989778048474 0.34299836400024653 0 0.011690520853611127 0.22079524363157618 0 0.017052989778048474 0.34299836400024653 0 0.011690520853611127 0.22079524363157618 0 0.015334597384964659 0.34880274862946681 0 0.0093553936685101605 0.23280278344090391 0 0.005784481224846926 0.11580504678574438 0 0.011690520853611127 0.22079524363157618 0 0.0093553936685101605 0.23280278344090391 0 0.011690520853611127 0.22079524363157618 0 0.015334597384964659 0.34880274862946681 0 0.0159207205535788 0.45381589502729458 0 0.015334597384964659 0.34880274862946681 0 0.020965736049437109 0.46561185106193742 0 0.0159207205535788 0.45381589502729458 0 0.020965736049437109 0.46561185106193742 0 0.020302756685892095 0.57277343915874024 0 0.017052989778048474 0.34299836400024653 0 0.020965736049437109 0.46561185106193742 0 0.019996436991868902 0.40839854730697756 0 0.017052989778048474 0.34299836400024653 0 0.015334597384964659 0.34880274862946681 0 0.020965736049437109 0.46561185106193742 0 0.020302756685892095 0.57277343915874024 0 0.021439202446892562 0.70865234768768526 0 0.014873391019326257 0.66247994758504514 0 0.020965736049437109 0.46561185106193742 0 0.023647960535025495 0.59612804685266052 0 0.023789535873277732 0.54664187768263173 0 0.020965736049437109 0.46561185106193742 0 0.020302756685892095 0.57277343915874024 0 0.023647960535025495 0.59612804685266052 0 0.023647960535025495 0.59612804685266052 0 0.02445384002672487 0.68848991462350373 0 0.021439202446892562 0.70865234768768526 0 0.020302756685892095 0.57277343915874024 0 0.023647960535025495 0.59612804685266052 0 0.021439202446892562 0.70865234768768526 0 0.023647960535025495 0.59612804685266052 0 0.02445384002672487 0.68848991462350373 0 0.023789535873277732 0.54664187768263173 0 0.023789535873277732 0.54664187768263173 0 0.022114800199843365 0.65599879521215687 0 0.020491604170733511 0.50559006494494341 0 0.02445384002672487 0.68848991462350373 0 0.023789535873277732 0.54664187768263173 0 0.022114800199843365 0.65599879521215687 0 0.02445384002672487 0.68848991462350373 0 0.022114800199843365 0.65599879521215687 0 0.020181465941273173 0.80962328785644699 0 0.020965736049437109 0.46561185106193742 0 0.023789535873277732 0.54664187768263173 0 0.019996436991868902 0.40839854730697756 0 0.023789535873277732 0.54664187768263173 0 0.019996436991868902 0.40839854730697756 0 0.020491604170733511 0.50559006494494341 0 0.01661536375981491 0.35683063875214976 0 0.019996436991868902 0.40839854730697756 0 0.020491604170733511 0.50559006494494341 0 0.01661536375981491 0.35683063875214976 0 0.020491604170733511 0.50559006494494341 0 0.014424721020738175 0.44629816750241819 0 0.020491604170733511 0.50559006494494341 0 0.014424721020738175 0.44629816750241819 0 0.016059102207112676 0.6051958034149989 0 0.014424721020738175 0.44629816750241819 0 0.016059102207112676 0.6051958034149989 0 0.0083969437580176109 0.53606635787541479 0 0.022114800199843365 0.65599879521215687 0 0.015280134052031828 0.76809420705961318 0 0.020181465941273173 0.80962328785644699 0 0.022114800199843365 0.65599879521215687 0 0.020491604170733511 0.50559006494494341 0 0.016059102207112676 0.6051958034149989 0 0.022114800199843365 0.65599879521215687 0 0.016059102207112676 0.6051958034149989 0 0.015280134052031828 0.76809420705961318 0 0.016059102207112676 0.6051958034149989 0 0.015280134052031828 0.76809420705961318 0 0.0084629570199688375 0.70358094168950081 0 0.015280134052031828 0.76809420705961318 0 0.0084629570199688375 0.70358094168950081 0 0.0067074356621490425 0.87435456623200736 0 0.016059102207112676 0.6051958034149989 0 0.0084629570199688375 0.70358094168950081 0 0.0083969437580176109 0.53606635787541479 0 0.0084629570199688375 0.70358094168950081 0 0.00031760557695311017 0.62540678831689245 0 0.00025416147733049521 0.79600228439150134 0 0.0084629570199688375 0.70358094168950081 0 0.00031760557695311017 0.62540678831689245 0 0.0083969437580176109 0.53606635787541479 0 0.0084629570199688375 0.70358094168950081 0 0.00025416147733049521 0.79600228439150134 0 0.0067074356621490425 0.87435456623200736 0 0.014424721020738175 0.44629816750241819 0 0.0083969437580176109 0.53606635787541479 0 0.00724325479020384 0.37616797293508697 0 0.00031760557695311017 0.62540678831689245 0 0.0083969437580176109 0.53606635787541479 0 0.0003695488415231787 0.45954054291042801 0 0.0083969437580176109 0.53606635787541479 0 0.0003695488415231787 0.45954054291042801 0 0.00724325479020384 0.37616797293508697 0 0.0003695488415231787 0.45954054291042801 0 0.00724325479020384 0.37616797293508697 0 0.00024728396480367353 0.29623615126710745 0 0.00724325479020384 0.37616797293508697 0 0.0052219999824433608 0.21920407544889794 0 0.011207456508481158 0.29216629102288971 0 0.0052219999824433608 0.21920407544889794 0 0.00024728396480367353 0.29623615126710745 0 3.9604288629306669e-05 0.13343958340329815 0 0.00724325479020384 0.37616797293508697 0 0.0052219999824433608 0.21920407544889794 0 0.00024728396480367353 0.29623615126710745 0 3.9604288629306669e-05 0.13343958340329815 0 2.3093260721053042e-06 0.00014933493383347709 0 0.0026386034452515381 0.092326164006508046 0 3.9604288629306669e-05 0.13343958340329815 0 2.3093260721053042e-06 0.00014933493383347709 0 -2.1949298392582229e-06 0.00014951187165374832 0 2.3093260721053042e-06 0.00014933493383347709 0 0.0026386034452515381 0.092326164006508046 0 2.8844381056374062e-06 0.00014693852289010277 0 0.0052219999824433608 0.21920407544889794 0 0.0026386034452515381 0.092326164006508046 0 0.0065120296962661054 0.13076143592455886 0 0.0052219999824433608 0.21920407544889794 0 3.9604288629306669e-05 0.13343958340329815 0 0.0026386034452515381 0.092326164006508046 0 0.0065120296962661054 0.13076143592455886 0 2.8844381056374062e-06 0.00014693852289010277 0 5.936360579937462e-06 0.00014259408613333518 0 0.0026386034452515381 0.092326164006508046 0 0.0065120296962661054 0.13076143592455886 0 2.8844381056374062e-06 0.00014693852289010277 0 0.0063892059409172202 0.10288832618186797 0 0.0065120296962661054 0.13076143592455886 0 5.936360579937462e-06 0.00014259408613333518 0 0.0063892059409172202 0.10288832618186797 0 0.011740063951100893 0.21518842852495282 0 0.0065120296962661054 0.13076143592455886 0 0.011740063951100893 0.21518842852495282 0 0.0065120296962661054 0.13076143592455886 0 0.011207456508481158 0.29216629102288971 0 0.01661536375981491 0.35683063875214976 0 0.014424721020738175 0.44629816750241819 0 0.011207456508481158 0.29216629102288971 0 0.01661536375981491 0.35683063875214976 0 0.011740063951100893 0.21518842852495282 0 0.011207456508481158 0.29216629102288971 0 0.014424721020738175 0.44629816750241819 0 0.00724325479020384 0.37616797293508697 0 0.011207456508481158 0.29216629102288971 0 0.0052219999824433608 0.21920407544889794 0 0.0065120296962661054 0.13076143592455886 0 0.011207456508481158 0.29216629102288971 0 -0.021953042364949875 1.3125460357590428 0 -0.0094804408665602573 1.2351182027544636 0 -0.018718614739783614 1.2050559997305601 0 -0.021953042364949875 1.3125460357590428 0 -0.03451491796035458 1.2725227748647971 0 -0.018718614739783614 1.2050559997305601 0 -0.03451491796035458 1.2725227748647971 0 -0.018718614739783614 1.2050559997305601 0 -0.024596553958710056 1.153647446880447 0 -0.021953042364949875 1.3125460357590428 0 -0.03451491796035458 1.2725227748647971 0 -0.032229494636298074 1.4044009562161677 0 -0.03451491796035458 1.2725227748647971 0 -0.032229494636298074 1.4044009562161677 0 -0.03938506386483457 1.3724833785597323 0 -0.032229494636298074 1.4044009562161677 0 -0.039570649174274948 1.5016951244324539 0 -0.025847901245613581 1.5039533178241216 0 -0.032229494636298074 1.4044009562161677 0 -0.03938506386483457 1.3724833785597323 0 -0.039570649174274948 1.5016951244324539 0 -0.032229494636298074 1.4044009562161677 0 -0.017395300456768216 1.4123804739025136 0 -0.025847901245613581 1.5039533178241216 0 -0.021953042364949875 1.3125460357590428 0 -0.032229494636298074 1.4044009562161677 0 -0.017395300456768216 1.4123804739025136 0 -0.017395300456768216 1.4123804739025136 0 -0.025847901245613581 1.5039533178241216 0 -0.0091033135136229446 1.5036919859478317 0 -0.017395300456768216 1.4123804739025136 0 -7.4637581685309861e-05 1.4159583378271616 0 -0.0091033135136229446 1.5036919859478317 0 -0.017395300456768216 1.4123804739025136 0 -7.4637581685309861e-05 1.4159583378271616 0 -0.0076435560816716487 1.3265940039852335 0 -7.4637581685309861e-05 1.4159583378271616 0 -0.0076435560816716487 1.3265940039852335 0 0.0073287531253416775 1.3271677379858198 0 -0.021953042364949875 1.3125460357590428 0 -0.017395300456768216 1.4123804739025136 0 -0.0076435560816716487 1.3265940039852335 0 -0.021953042364949875 1.3125460357590428 0 -0.0076435560816716487 1.3265940039852335 0 -0.0094804408665602573 1.2351182027544636 0 -0.0076435560816716487 1.3265940039852335 0 -6.961308202431132e-05 1.240877048406652 0 0.0073287531253416775 1.3271677379858198 0 -0.0076435560816716487 1.3265940039852335 0 -0.0094804408665602573 1.2351182027544636 0 -6.961308202431132e-05 1.240877048406652 0 -6.961308202431132e-05 1.240877048406652 0 1.1240959983875407e-05 1.1547194299843315 0 -0.0002003734420238786 1.1547307193505973 0 -0.0094804408665602573 1