<?xml version="1.0"?>
<VTKFile type="UnstructuredGrid" version="0.1" byte_order="LittleEndian">
<UnstructuredGrid>
<Piece NumberOfPoints="1416" NumberOfCells="472">
<Points>
<DataArray type="Float64" NumberOfComponents="3" format="ascii">
0 0 0 0.10457868679590381 0.1045786867961369 0 0 0.14285714285773729 0 0 0 0 0.10457868679590381 0.1045786867961369 0 0.14285714285686729 0 0 0 0.14285714285773729 0 0.1205280434882494 0.2198107335145128 0 0 0.28571428571547469 0 0.10457868679590381 0.1045786867961369 0 0 0.14285714285773729 0 0.1205280434882494 0.2198107335145128 0 0.10457868679590381 0.1045786867961369 0 0.1205280434882494 0.2198107335145128 0 0.23239159885774061 0.13190444287250189 0 0.1205280434882494 0.2198107335145128 0 0.23239159885774061 0.13190444287250189 0 0.24676305227411319 0.28687957031901817 0 0.23239159885774061 0.13190444287250189 0 0.14285714285686729 0 0 0.28571428571359381 0 0 0.10457868679590381 0.1045786867961369 0 0.23239159885774061 0.13190444287250189 0 0.14285714285686729 0 0 0 0.42857142857321201 0 0.12318626960338119 0.35806369368234708 0 0.1237179148261041 0.50000000000170131 0 0.1205280434882494 0.2198107335145128 0 0 0.28571428571547469 0 0.12318626960338119 0.35806369368234708 0 0 0.42857142857321201 0 0 0.28571428571547469 0 0.12318626960338119 0.35806369368234708 0 0.12318626960338119 0.35806369368234708 0 0.24676305227411319 0.28687957031901817 0 0.24734722211536869 0.42872490132986318 0 0.1205280434882494 0.2198107335145128 0 0.12318626960338119 0.35806369368234708 0 0.24676305227411319 0.28687957031901817 0 0.12318626960338119 0.35806369368234708 0 0.24734722211536869 0.42872490132986318 0 0.1237179148261041 0.50000000000170131 0 0.24734722211536869 0.42872490132986318 0 0.37092720430330528 0.3575352362405908 0 0.36988311095923349 0.50220080181584725 0 0.24676305227411319 0.28687957031901817 0 0.24734722211536869 0.42872490132986318 0 0.37092720430330528 0.3575352362405908 0 0.24676305227411319 0.28687957031901817 0 0.37092720430330528 0.3575352362405908 0 0.36915712373071241 0.21636596932123339 0 0.37092720430330528 0.3575352362405908 0 0.49672432738210071 0.28393829206612331 0 0.49462213035585811 0.42900362539316111 0 0.37092720430330528 0.3575352362405908 0 0.49672432738210071 0.28393829206612331 0 0.36915712373071241 0.21636596932123339 0 0.37092720430330528 0.3575352362405908 0 0.49462213035585811 0.42900362539316111 0 0.36988311095923349 0.50220080181584725 0 0.23239159885774061 0.13190444287250189 0 0.28571428571359381 0 0 0.35859653742646141 0.095659861108573122 0 0.28571428571359381 0 0 0.35859653742646141 0.095659861108573122 0 0.42857142857032021 0 0 0.23239159885774061 0.13190444287250189 0 0.35859653742646141 0.095659861108573122 0 0.36915712373071241 0.21636596932123339 0 0.23239159885774061 0.13190444287250189 0 0.24676305227411319 0.28687957031901817 0 0.36915712373071241 0.21636596932123339 0 0.35859653742646141 0.095659861108573122 0 0.36915712373071241 0.21636596932123339 0 0.49780213970257631 0.12951344063459669 0 0.49672432738210071 0.28393829206612331 0 0.36915712373071241 0.21636596932123339 0 0.49780213970257631 0.12951344063459669 0 0.49780213970257631 0.12951344063459669 0 0.42857142857032021 0 0 0.57142857142744297 0 0 0.35859653742646141 0.095659861108573122 0 0.49780213970257631 0.12951344063459669 0 0.42857142857032021 0 0 0.49780213970257631 0.12951344063459669 0 0.57142857142744297 0 0 0.63660835508033609 0.094591959883232241 0 0.71428571428496201 0 0 0.63660835508033609 0.094591959883232241 0 0.77046111744085066 0.12953438606218601 0 0.57142857142744297 0 0 0.71428571428496201 0 0 0.63660835508033609 0.094591959883232241 0 0.62906423254584809 0.2139119727193784 0 0.74962020231513216 0.28479798582519888 0 0.77046111744085066 0.12953438606218601 0 0.63660835508033609 0.094591959883232241 0 0.62906423254584809 0.2139119727193784 0 0.77046111744085066 0.12953438606218601 0 0.49780213970257631 0.12951344063459669 0 0.63660835508033609 0.094591959883232241 0 0.62906423254584809 0.2139119727193784 0 0.49672432738210071 0.28393829206612331 0 0.49780213970257631 0.12951344063459669 0 0.62906423254584809 0.2139119727193784 0 0.49672432738210071 0.28393829206612331 0 0.62906423254584809 0.2139119727193784 0 0.61877313365430409 0.35729950808777972 0 0.49672432738210071 0.28393829206612331 0 0.49462213035585811 0.42900362539316111 0 0.61877313365430409 0.35729950808777972 0 0.49462213035585811 0.42900362539316111 0 0.61877313365430409 0.35729950808777972 0 0.61994046021572546 0.50050770882833406 0 0.61877313365430409 0.35729950808777972 0 0.74395712453556107 0.42868954426104389 0 0.61994046021572546 0.50050770882833406 0 0.62906423254584809 0.2139119727193784 0 0.61877313365430409 0.35729950808777972 0 0.74962020231513216 0.28479798582519888 0 0.61877313365430409 0.35729950808777972 0 0.74395712453556107 0.42868954426104389 0 0.74962020231513216 0.28479798582519888 0 0.74962020231513216 0.28479798582519888 0 0.87039329201519555 0.35777862987572301 0 0.88067757021423154 0.21876991540137231 0 0.74395712453556107 0.42868954426104389 0 0.74962020231513216 0.28479798582519888 0 0.87039329201519555 0.35777862987572301 0 0.74395712453556107 0.42868954426104389 0 0.87039329201519555 0.35777862987572301 0 0.87402660110768737 0.50072468068975784 0 0.87039329201519555 0.35777862987572301 0 0.87402660110768737 0.50072468068975784 0 1 0.42857142857032021 0 0.87039329201519555 0.35777862987572301 0 1 0.28571428571359381 0 1 0.42857142857032021 0 0.87039329201519555 0.35777862987572301 0 0.88067757021423154 0.21876991540137231 0 1 0.28571428571359381 0 0.88067757021423154 0.21876991540137231 0 1 0.14285714285686729 0 1 0.28571428571359381 0 0.88067757021423154 0.21876991540137231 0 0.89542131320405993 0.10457868679576519 0 1 0.14285714285686729 0 0.89542131320405993 0.10457868679576519 0 0.85714285714248095 0 0 1 0 0 0.89542131320405993 0.10457868679576519 0 1 0.14285714285686729 0 1 0 0 0.71428571428496201 0 0 0.85714285714248095 0 0 0.77046111744085066 0.12953438606218601 0 0.89542131320405993 0.10457868679576519 0 0.85714285714248095 0 0 0.77046111744085066 0.12953438606218601 0 0.74962020231513216 0.28479798582519888 0 0.88067757021423154 0.21876991540137231 0 0.77046111744085066 0.12953438606218601 0 0.88067757021423154 0.21876991540137231 0 0.89542131320405993 0.10457868679576519 0 0.77046111744085066 0.12953438606218601 0 0.77107999172528308 0.87126586664953709 0 0.88289663992475431 0.7838324948760429 0 0.75462543859776565 0.71847561378613189 0 0.77107999172528308 0.87126586664953709 0 0.89597942421617771 0.89597942421617771 0 0.88289663992475431 0.7838324948760429 0 0.77107999172528308 0.87126586664953709 0 0.89597942421617771 0.89597942421617771 0 0.85714285714248095 1 0 0.77107999172528308 0.87126586664953709 0 0.71428571428496201 1 0 0.85714285714248095 1 0 0.89597942421617771 0.89597942421617771 0 1 1 0 1 0.85714285714248095 0 0.89597942421617771 0.89597942421617771 0 0.85714285714248095 1 0 1 1 0 0.88289663992475431 0.7838324948760429 0 1 0.71428571428496201 0 1 0.85714285714248095 0 0.89597942421617771 0.89597942421617771 0 0.88289663992475431 0.7838324948760429 0 1 0.85714285714248095 0 0.88289663992475431 0.7838324948760429 0 0.87569498500930032 0.64584549317696871 0 1 0.71428571428496201 0 0.87569498500930032 0.64584549317696871 0 1 0.57142857142744297 0 1 0.71428571428496201 0 0.87402660110768737 0.50072468068975784 0 1 0.42857142857032021 0 1 0.57142857142744297 0 0.87569498500930032 0.64584549317696871 0 0.87402660110768737 0.50072468068975784 0 1 0.57142857142744297 0 0.87569498500930032 0.64584549317696871 0 0.87402660110768737 0.50072468068975784 0 0.75217156042298328 0.57142857143374093 0 0.74395712453556107 0.42868954426104389 0 0.87402660110768737 0.50072468068975784 0 0.75217156042298328 0.57142857143374093 0 0.88289663992475431 0.7838324948760429 0 0.87569498500930032 0.64584549317696871 0 0.75462543859776565 0.71847561378613189 0 0.87569498500930032 0.64584549317696871 0 0.75217156042298328 0.57142857143374093 0 0.75462543859776565 0.71847561378613189 0 0.75462543859776565 0.71847561378613189 0 0.62020719605389174 0.64337743701966787 0 0.62820860079938645 0.78795395941460822 0 0.75217156042298328 0.57142857143374093 0 0.75462543859776565 0.71847561378613189 0 0.62020719605389174 0.64337743701966787 0 0.74395712453556107 0.42868954426104389 0 0.75217156042298328 0.57142857143374093 0 0.61994046021572546 0.50050770882833406 0 0.75217156042298328 0.57142857143374093 0 0.61994046021572546 0.50050770882833406 0 0.62020719605389174 0.64337743701966787 0 0.49462213035585811 0.42900362539316111 0 0.61994046021572546 0.50050770882833406 0 0.49336243329648061 0.57404262755753699 0 0.61994046021572546 0.50050770882833406 0 0.62020719605389174 0.64337743701966787 0 0.49336243329648061 0.57404262755753699 0 0.62020719605389174 0.64337743701966787 0 0.49336243329648061 0.57404262755753699 0 0.49462248589941132 0.72194975613875201 0 0.62020719605389174 0.64337743701966787 0 0.62820860079938645 0.78795395941460822 0 0.49462248589941132 0.72194975613875201 0 0.62820860079938645 0.78795395941460822 0 0.49817729930567289 0.8734572123725528 0 0.49462248589941132 0.72194975613875201 0 0.62820860079938645 0.78795395941460822 0 0.63663603550854941 0.90653540768733964 0 0.49817729930567289 0.8734572123725528 0 0.77107999172528308 0.87126586664953709 0 0.62820860079938645 0.78795395941460822 0 0.63663603550854941 0.90653540768733964 0 0.77107999172528308 0.87126586664953709 0 0.75462543859776565 0.71847561378613189 0 0.62820860079938645 0.78795395941460822 0 0.77107999172528308 0.87126586664953709 0 0.63663603550854941 0.90653540768733964 0 0.71428571428496201 1 0 0.63663603550854941 0.90653540768733964 0 0.71428571428496201 1 0 0.57142857142744297 1 0 0.63663603550854941 0.90653540768733964 0 0.49817729930567289 0.8734572123725528 0 0.57142857142744297 1 0 0.49817729930567289 0.8734572123725528 0 0.35714285714195693 0.91161422340059473 0 0.42857142857032021 1 0 
[...]
<PointData Scalars="" Vectors="displacement," Tensors="">
<DataArray type="Float64" Name="displacement" NumberOfComponents="3" format="ascii">
7.1424764826337258e-05 7.1405521367239703e-05 0 0.10573002158329151 0.10570342331731526 0 0.14284051658274374 0.000162992343574989 0 7.1424764826337258e-05 7.1405521367239703e-05 0 0.10573002158329151 0.10570342331731526 0 0.00016285954857488591 0.14284045729461201 0 0.14284051658274374 0.000162992343574989 0 0.22200062981976684 0.12286143660639041 0 0.28572261315385128 0.00013965143667472066 0 0.10573002158329151 0.10570342331731526 0 0.14284051658274374 0.000162992343574989 0 0.22200062981976684 0.12286143660639041 0 0.10573002158329151 0.10570342331731526 0 0.22200062981976684 0.12286143660639041 0 0.13457627157076035 0.23482097631730656 0 0.22200062981976684 0.12286143660639041 0 0.13457627157076035 0.23482097631730656 0 0.29169403557492735 0.25155634052127634 0 0.13457627157076035 0.23482097631730656 0 0.00016285954857488591 0.14284045729461201 0 0.00014008689953050056 0.28572270597459232 0 0.10573002158329151 0.10570342331731526 0 0.13457627157076035 0.23482097631730656 0 0.00016285954857488591 0.14284045729461201 0 0.42857569949330737 0.00014703093122153777 0 0.36139344011326718 0.12679754055465142 0 0.50570736988135989 0.12884042892954239 0 0.22200062981976684 0.12286143660639041 0 0.28572261315385128 0.00013965143667472066 0 0.36139344011326718 0.12679754055465142 0 0.42857569949330737 0.00014703093122153777 0 0.28572261315385128 0.00013965143667472066 0 0.36139344011326718 0.12679754055465142 0 0.36139344011326718 0.12679754055465142 0 0.29169403557492735 0.25155634052127634 0 0.43617430309134975 0.25381266384322526 0 0.22200062981976684 0.12286143660639041 0 0.36139344011326718 0.12679754055465142 0 0.29169403557492735 0.25155634052127634 0 0.36139344011326718 0.12679754055465142 0 0.43617430309134975 0.25381266384322526 0 0.50570736988135989 0.12884042892954239 0 0.43617430309134975 0.25381266384322526 0 0.36514976572396096 0.37866600832798025 0 0.51471657914604863 0.37841363313344534 0 0.29169403557492735 0.25155634052127634 0 0.43617430309134975 0.25381266384322526 0 0.36514976572396096 0.37866600832798025 0 0.29169403557492735 0.25155634052127634 0 0.36514976572396096 0.37866600832798025 0 0.22187629564434899 0.37465315250676556 0 0.36514976572396096 0.37866600832798025 0 0.29156993084428262 0.50765849946219399 0 0.43881859540752366 0.507391641361437 0 0.36514976572396096 0.37866600832798025 0 0.29156993084428262 0.50765849946219399 0 0.22187629564434899 0.37465315250676556 0 0.36514976572396096 0.37866600832798025 0 0.43881859540752366 0.507391641361437 0 0.51471657914604863 0.37841363313344534 0 0.13457627157076035 0.23482097631730656 0 0.00014008689953050056 0.28572270597459232 0 0.098683524209323498 0.36123312529088941 0 0.00014008689953050056 0.28572270597459232 0 0.098683524209323498 0.36123312529088941 0 0.00014661543517323906 0.42857547196182172 0 0.13457627157076035 0.23482097631730656 0 0.098683524209323498 0.36123312529088941 0 0.22187629564434899 0.37465315250676556 0 0.13457627157076035 0.23482097631730656 0 0.29169403557492735 0.25155634052127634 0 0.22187629564434899 0.37465315250676556 0 0.098683524209323498 0.36123312529088941 0 0.22187629564434899 0.37465315250676556 0 0.13506399747034381 0.50370654036573392 0 0.29156993084428262 0.50765849946219399 0 0.22187629564434899 0.37465315250676556 0 0.13506399747034381 0.50370654036573392 0 0.13506399747034381 0.50370654036573392 0 0.00014661543517323906 0.42857547196182172 0 0.00014821066225637874 0.57143709642134111 0 0.098683524209323498 0.36123312529088941 0 0.13506399747034381 0.50370654036573392 0 0.00014661543517323906 0.42857547196182172 0 0.13506399747034381 0.50370654036573392 0 0.00014821066225637874 0.57143709642134111 0 0.10025455397508896 0.64510157660649425 0 0.00014776191195710494 0.71430978110195542 0 0.10025455397508896 0.64510157660649425 0 0.13772483101834981 0.79384009352599527 0 0.00014821066225637874 0.57143709642134111 0 0.00014776191195710494 0.71430978110195542 0 0.10025455397508896 0.64510157660649425 0 0.22197017298097901 0.64605273562437238 0 0.29075462899030019 0.78954831357779798 0 0.13772483101834981 0.79384009352599527 0 0.10025455397508896 0.64510157660649425 0 0.22197017298097901 0.64605273562437238 0 0.13772483101834981 0.79384009352599527 0 0.13506399747034381 0.50370654036573392 0 0.10025455397508896 0.64510157660649425 0 0.22197017298097901 0.64605273562437238 0 0.29156993084428262 0.50765849946219399 0 0.13506399747034381 0.50370654036573392 0 0.22197017298097901 0.64605273562437238 0 0.29156993084428262 0.50765849946219399 0 0.22197017298097901 0.64605273562437238 0 0.36505381674270321 0.64119840151320984 0 0.29156993084428262 0.50765849946219399 0 0.43881859540752366 0.507391641361437 0 0.36505381674270321 0.64119840151320984 0 0.43881859540752366 0.507391641361437 0 0.36505381674270321 0.64119840151320984 0 0.51063290014102469 0.64297563386659873 0 0.36505381674270321 0.64119840151320984 0 0.43309835575569622 0.79002575395695229 0 0.51063290014102469 0.64297563386659873 0 0.22197017298097901 0.64605273562437238 0 0.36505381674270321 0.64119840151320984 0 0.29075462899030019 0.78954831357779798 0 0.36505381674270321 0.64119840151320984 0 0.43309835575569622 0.79002575395695229 0 0.29075462899030019 0.78954831357779798 0 0.29075462899030019 0.78954831357779798 0 0.35662147166819974 0.9544302301573554 0 0.22083509910641669 0.94686601600290943 0 0.43309835575569622 0.79002575395695229 0 0.29075462899030019 0.78954831357779798 0 0.35662147166819974 0.9544302301573554 0 0.43309835575569622 0.79002575395695229 0 0.35662147166819974 0.9544302301573554 0 0.4983168774180996 0.96384057472356988 0 0.35662147166819974 0.9544302301573554 0 0.4983168774180996 0.96384057472356988 0 0.4178824631632726 1.1601307469943436 0 0.35662147166819974 0.9544302301573554 0 0.275067354026866 1.1426575144102602 0 0.4178824631632726 1.1601307469943436 0 0.35662147166819974 0.9544302301573554 0 0.22083509910641669 0.94686601600290943 0 0.275067354026866 1.1426575144102602 0 0.22083509910641669 0.94686601600290943 0 0.13381105473342203 1.0972747078687421 0 0.275067354026866 1.1426575144102602 0 0.22083509910641669 0.94686601600290943 0 0.10939323058390622 0.93363386009088034 0 0.13381105473342203 1.0972747078687421 0 0.10939323058390622 0.93363386009088034 0 0.00015809536636705363 0.85715906924870822 0 0.00013101892813994462 1.0001720562019507 0 0.10939323058390622 0.93363386009088034 0 0.13381105473342203 1.0972747078687421 0 0.00013101892813994462 1.0001720562019507 0 0.00014776191195710494 0.71430978110195542 0 0.00015809536636705363 0.85715906924870822 0 0.13772483101834981 0.79384009352599527 0 0.10939323058390622 0.93363386009088034 0 0.00015809536636705363 0.85715906924870822 0 0.13772483101834981 0.79384009352599527 0 0.29075462899030019 0.78954831357779798 0 0.22083509910641669 0.94686601600290943 0 0.13772483101834981 0.79384009352599527 0 0.22083509910641669 0.94686601600290943 0 0.10939323058390622 0.93363386009088034 0 0.13772483101834981 0.79384009352599527 0 0.92138271653640202 0.77954993429396413 0 0.79176848061471361 0.93430007855805752 0 0.73739806328468327 0.78441814559303358 0 0.92138271653640202 0.77954993429396413 0 0.91948043429366899 0.91883338098489242 0 0.79176848061471361 0.93430007855805752 0 0.92138271653640202 0.77954993429396413 0 0.91948043429366899 0.91883338098489242 0 1.088693605208056 0.84364152205760679 0 0.92138271653640202 0.77954993429396413 0 1.1337382141273513 0.70131206627134435 0 1.088693605208056 0.84364152205760679 0 0.91948043429366899 0.91883338098489242 0 0.99997705395037462 0.99992828244474885 0 0.84367765654725324 1.0886304706933909 0 0.91948043429366899 0.91883338098489242 0 1.088693605208056 0.84364152205760679 0 0.99997705395037462 0.99992828244474885 0 0.79176848061471361 0.93430007855805752 0 0.70176285307036623 1.1336346099553296 0 0.84367765654725324 1.0886304706933909 0 0.91948043429366899 0.91883338098489242 0 0.79176848061471361 0.93430007855805752 0 0.84367765654725324 1.0886304706933909 0 0.79176848061471361 0.93430007855805752 0 0.64579813771055994 0.95279896931637975 0 0.70176285307036623 1.1336346099553296 0 0.64579813771055994 0.95279896931637975 0 0.56020434879776382 1.1566144967679426 0 0.70176285307036623 1.1336346099553296 0 0.4983168774180996 0.96384057472356988 0 0.4178824631632726 1.1601307469943436 0 0.56020434879776382 1.1566144967679426 0 0.64579813771055994 0.95279896931637975 0 0.4983168774180996 0.96384057472356988 0 0.56020434879776382 1.1566144967679426 0 0.64579813771055994 0.95279896931637975 0 0.4983168774180996 0.96384057472356988 0 0.57803259554885866 0.79642410153677734 0 0.43309835575569622 0.79002575395695229 0 0.4983168774180996 0.96384057472356988 0 0.57803259554885866 0.79642410153677734 0 0.79176848061471361 0.93430007855805752 0 0.64579813771055994 0.95279896931637975 0 0.73739806328468327 0.78441814559303358 0 0.64579813771055994 0.95279896931637975 0 0.57803259554885866 0.79642410153677734 0 0.73739806328468327 0.78441814559303358 0 0.73739806328468327 0.78441814559303358 0 0.66438297626728249 0.63737099194644609 0 0.83729336454433723 0.63509041891528351 0 0.57803259554885866 0.79642410153677734 0 0.73739806328468327 0.78441814559303358 0 0.66438297626728249 0.63737099194644609 0 0.43309835575569622 0.79002575395695229 0 0.57803259554885866 0.79642410153677734 0 0.51063290014102469 0.64297563386659873 0 0.57803259554885866 0.79642410153677734 0 0.51063290014102469 0.64297563386659873 0 0.66438297626728249 0.63737099194644609 0 0.43881859540752366 0.507391641361437 0 0.51063290014102469 0.64297563386659873 0 0.59191958891999141 0.50456457415464229 0 0.51063290014102469 0.64297563386659873 0 0.66438297626728249 0.63737099194644609 0 0.59191958891999141 0.50456457415464229 0 0.66438297626728249 0.63737099194644609 0 0.59191958891999141 0.50456457415464229 0 0.76226418718911915 0.50067028865736174 0 0.66438297626728249 0.63737099194644609 0 0.83729336454433723 0.63509041891528351 0 0.76226418718911915 0.50067028865736174 0 0.83729336454433723 0.63509041891528351 0 0.96273309846977584 0.49578567593369632 0 0.76226418718911915 0.50067028865736174 0 0.83729336454433723 0.63509041891528351 0 1.0001255808828302 0.63348717614889727 0 0.96273309846977584 0.49578567593369632 0 0.92138271653640202 0.77954993429396413 0 0.83729336454433723 0.63509041891528351 0 1.0001255808828302 0.63348717614889727 0 0.92138271653640202 0.77954993429396413 0 0.73739806328468327 0.78441814559303358 0 0.83729336454433723 0.63509041891528351 0 0.92138271653640202 0.77954993429396413 0 1.0001255808828302 0.63348717614889727 0 1.1337382141273513 0.70131206627134435 0 1.0001255808828302 0.63348717614889727 0 1.1337382141273513 0.70131206627134435 0 1.1567593231421327 0.5603310929823565 0 1.0001255808828302 0.63348717614889727 0 0.96273309846977584 0.49578567593369632 0 1.1567593231421327 0.5603310929823565 0 0.96273309846977584 0.49578567593369632 0 1.0152629930648738 0.35298968165547895 0 1.1602523324339564 0.41756031708166835 0 0.96273309846977584 0.49578567593369632 0 1.1602523324339564 0.41756031708166835 0 1.1567593231421327 0.5603310929823565 0 0.96273309846977584 0.49578567593369632 0 0.85546924028692217 0.37101707219283903 0 0.76226418718911915 0.50067028865736174 0 0.96273309846977584 0.49578567593369632 0 0.85546924028692217 0.37101707219283903 0 1.0152629930648738 0.35298968165547895 0 0.85546924028692217 0.37101707219283903 0 1.0152629930648738 0.35298968165547895 0 0.9385945711648408 0.23355912269424678 0 0.85546924028692217 0.37101707219283903 0 0.75134070146287613 0.25092493002998789 0 0.9385945711648408 0.23355912269424678 0 1.0152629930648738 0.35298968165547895 0 1.1602523324339564 0.41756031708166835 0 1.1424084041228695 0.2751009724249287 0 1.0152629930648738 0.35298968165547895 0 0.9385945711648408 0.23355912269424678 0 1.1424084041228695 0.2751009724249287 0 0.43881859540752366 0.507391641361437 0 0.59191958891999141 0.50456457415464229 0 0.51471657914604863 0.37841363313344534 0 0.59191958891999141 0.50456457415464229 0 0.68000659632413329 0.37452476420810599 0 0.51471657914604863 0.37841363313344534 0 0.85546924028692217 0.37101707219283903 0 0.76226418718911915 0.50067028865736174 0 0.68000659632413329 0.37452476420810599 0 0.59191958891999141 0.50456457415464229 0 0.76226418718911915 0.50067028865736174 0 0.68000659632413329 0.37452476420810599 0 0.68000659632413329 0.37452476420810599 0 0.58549886820437647 0.25507031041521028 0 0.75134070146287613 0.25092493002998789 0 0.85546924028692217 0.37101707219283903 0 0.68000659632413329 0.37452476420810599 0 0.75134070146287613 0.25092493002998789 0 0.68000659632413329 0.37452476420810599 0 0.51471657914604863 0.37841363313344534 0 0.58549886820437647 0.25507031041521028 0 0.43617430309134975 0.25381266384322526 0 0.51471657914604863 0.37841363313344534 0 0.58549886820437647 0.25507031041521028 0 0.58549886820437647 0.25507031041521028 0 0.65815500393274473 0.13131788571771127 0 0.50570736988135989 0.12884042892954239 0 0.43617430309134975 0.25381266384322526 0 0.58549886820437647 0.25507031041521028 0 0.50570736988135989 0.12884042892954239 0 0.58549886820437647 0.25507031041521028 0 0.75134070146287613 0.25092493002998789 0 0.65815500393274473 0.13131788571771127 0 0.75134070146287613 0.25092493002998789 0 0.65815500393274473 0.13131788571771127 0 0.80999553209641295 0.13160284246014942 0 0.65815500393274473 0.13131788571771127 0 0.71431113856580897 0.00014913851985568174 0 0.80999553209641295 0.13160284246014942 0 0.65815500393274473 0.13131788571771127 0 0.71431113856580897 0.00014913851985568174 0 0.57143666585951158 0.00014750316007587991 0 0.65815500393274473 0.13131788571771127 0 0.50570736988135989 0.12884042892954239 0 0.57143666585951158 0.00014750316007587991 0 0.42857569949330737 0.00014703093122153777 0 0.50570736988135989 0.12884042892954239 0 0.57143666585951158 0.00014750316007587991 0 0.9385945711648408 0.23355912269424678 0 0.93370614113487393 0.10957575199099884 0 1.0972043360973749 0.13388934246885403 0 0.9385945711648408 0.23355912269424678 0 1.0972043360973749 0.13388934246885403 0 1.1424084041228695 0.2751009724249287 0 0.75134070146287613 0.25092493002998789 0 0.9385945711648408 0.23355912269424678 0 0.80999553209641295 0.13160284246014942 0 0.9385945711648408 0.23355912269424678 0 0.80999553209641295 0.13160284246014942 0 0.93370614113487393 0.10957575199099884 0 0.80999553209641295 0.13160284246014942 0 0.85715781086335641 0.0001570697870935519 0 0.93370614113487393 0.10957575199099884 0 0.71431113856580897 0.00014913851985568174 0 0.80999553209641295 0.13160284246014942 0 0.85715781086335641 0.0001570697870935519 0 0.93370614113487393 0.10957575199099884 0 1.0001727573936967 0.00013106339001756081 0 1.0972043360973749 0.13388934246885403 0 0.85715781086335641 0.0001570697870935519 0 0.93370614113487393 0.10957575199099884 0 1.0001727573936967 0.00013106339001756081 0 1.0001727573936967 0.00013106339001756081 0 1.1442217625592388 0.090949507113341571 0 1.1428770578720087 0.00012579063933528139 0 1.0001727573936967 0.00013106339001756081 0 1.1442217625592388 0.090949507113341571 0 1.0972043360973749 0.13388934246885403 0 1.0972043360973749 0.13388934246885403 0 1.1848880448732846 0.20117356125305527 0 1.1424084041228695 0.2751009724249287 0 1.1442217625592388 0.090949507113341571 0 1.0972043360973749 0.13388934246885403 0 1.1848880448732846 0.20117356125305527 0 1.1442217625592388 0.090949507113341571 0 1.1848880448732846 0.20117356125305527 0 1.2556611372843598 0.11320378215448093 0 1.1848880448732846 0.20117356125305527 0 1.2556611372843598 0.11320378215448093 0 1.2855571256984959 0.26579825018580161 0 1.1442217625592388 0.090949507113341571 0 1.2556611372843598 0.11320378215448093 0 1.1428770578720087 0.00012579063933528139 0 1.2556611372843598 0.11320378215448093 0 1.1428770578720087 0.00012579063933528139 0 1.2857409956469346 0.00013467938286465306 0 1.3671149278970123 0.079699030113395006 0 1.2857409956469346 0.00013467938286465306 0 1.4285825956997915 0.00013413491148316539 0 1.2556611372843598 0.11320378215448093 0 1.3671149278970123 0.079699030113395006 0 1.2857409956469346 0.00013467938286465306 0 1.4285825956997915 0.00013413491148316539 0 1.5063952554324715 0.11787469006358571 0 1.5714379495667852 0.00014028229795804198 0 1.3671149278970123 0.079699030113395006 0 1.4285825956997915 0.00013413491148316539 0 1.5063952554324715 0.11787469006358571 0 1.5063952554324715 0.11787469006358571 0 1.3836439604614963 0.19358787015154758 0 1.5104772456310325 0.26404153601585489 0 1.3671149278970123 0.079699030113395006 0 1.5063952554324715 0.11787469006358571 0 1.3836439604614963 0.19358787015154758 0 1.2556611372843598 0.11320378215448093 0 1.3836439604614963 0.19358787015154758 0 1.2855571256984959 0.26579825018580161 0 1.2556611372843598 0.11320378215448093 0 1.3671149278970123 0.079699030113395006 0 1.3836439604614963 0.19358787015154758 0 1.3957707430109179 0.33664208075592739 0 1.2979384956736566 0.410144756072857 0 1.2855571256984959 0.26579825018580161 0 1.3836439604614963 0.19358787015154758 0 1.3957707430109179 0.33664208075592739 0 1.2855571256984959 0.26579825018580161 0 1.3957707430109179 0.33664208075592739 0 1.5104772456310325 0.26404153601585489 0 1.5137303109520688 0.40818550721917385 0 1.3836439604614963 0.19358787015154758 0 1.3957707430109179 0.33664208075592739 0 1.5104772456310325 0.26404153601585489 0 1.3957707430109179 0.33664208075592739 0 1.5137303109520688 0.40818550721917385 0 1.401746821114974 0.47703227657352332 0 1.5137303109520688 0.40818550721917385 0 1.401746821114974 0.47703227657352332 0 1.5160889568356135 0.54511741046574591 0 1.401746821114974 0.47703227657352332 0 1.2979384956736566 0.410144756072857 0 1.2998610092291012 0.5504226090681017 0 1.3957707430109179 0.33664208075592739 0 1.401746821114974 0.47703227657352332 0 1.2979384956736566 0.410144756072857 0 1.2979384956736566 0.410144756072857 0 1.2107443961736195 0.34210222251557487 0 1.2181734118501477 0.48589397907934506 0 1.1602523324339564 0.41756031708166835 0 1.2107443961736195 0.34210222251557487 0 1.2181734118501477 0.48589397907934506 0 1.1848880448732846 0.20117356125305527 0 1.2107443961736195 0.34210222251557487 0 1.1424084041228695 0.2751009724249287 0 1.1602523324339564 0.41756031708166835 0 1.2107443961736195 0.34210222251557487 0 1.1424084041228695 0.2751009724249287 0 1.2979384956736566 0.410144756072857 0 1.2107443961736195 0.34210222251557487 0 1.2855571256984959 0.26579825018580161 0 1.1848880448732846 0.20117356125305527 0 1.2107443961736195 0.34210222251557487 0 1.2855571256984959 0.26579825018580161 0 1.8865248107050785 0.21268945506080536 0 1.9998402773918118 0.14283417066610529 0 1.9998653167091121 0.28571401551037562 0 1.8865248107050785 0.21268945506080536 0 1.9998402773918118 0.14283417066610529 0 1.8977262818269429 0.1022555224115769 0 1.9998402773918118 0.14283417066610529 0 1.9999285200753736 7.1446027524433572e-05 0 1.8977262818269429 0.1022555224115769 0 1.9999285200753736 7.1446027524433572e-05 0 1.8977262818269429 0.1022555224115769 0 1.8571657422411743 0.00015994275395537377 0 1.8571657422411743 0.00015994275395537377 0 1.7749928833456508 0.12459530403592982 0 1.7142861818369126 0.00013402631551966878 0 1.8977262818269429 0.1022555224115769 0 1.8571657422411743 0.00015994275395537377 0 1.7749928833456508 0.12459530403592982 0 1.8865248107050785 0.21268945506080536 0 1.7749928833456508 0.12459530403592982 0 1.7625907735756916 0.27362721334761481 0 1.8865248107050785 0.21268945506080536 0 1.8977262818269429 0.1022555224115769 0 1.7749928833456508 0.12459530403592982 0 1.7749928833456508 0.12459530403592982 0 1.636972562368654 0.20286779842913111 0 1.7625907735756916 0.27362721334761481 0 1.7749928833456508 0.12459530403592982 0 1.636972562368654 0.20286779842913111 0 1.6407805031120581 0.088836632189550596 0 