<?xml version="1.0"?>
<VTKFile type="UnstructuredGrid" version="0.1" byte_order="LittleEndian">
<UnstructuredGrid>
<Piece NumberOfPoints="1416" NumberOfCells="472">
<Points>
<DataArray type="Float64" NumberOfComponents="3" format="ascii">
0 0 0 0.10457868679590381 0.1045786867961369 0 0 0.14285714285773729 0 0 0 0 0.10457868679590381 0.1045786867961369 0 0.14285714285686729 0 0 0 0.14285714285773729 0 0.1205280434882494 0.2198107335145128 0 0 0.28571428571547469 0 0.10457868679590381 0.1045786867961369 0 0 0.14285714285773729 0 0.1205280434882494 0.2198107335145128 0 0.10457868679590381 0.1045786867961369 0 0.1205280434882494 0.2198107335145128 0 0.23239159885774061 0.13190444287250189 0 0.1205280434882494 0.2198107335145128 0 0.23239159885774061 0.13190444287250189 0 0.24676305227411319 0.28687957031901817 0 0.23239159885774061 0.13190444287250189 0 0.14285714285686729 0 0 0.28571428571359381 0 0 0.10457868679590381 0.1045786867961369 0 0.23239159885774061 0.13190444287250189 0 0.14285714285686729 0 0 0 0.42857142857321201 0 0.12318626960338119 0.35806369368234708 0 0.1237179148261041 0.50000000000170131 0 0.1205280434882494 0.2198107335145128 0 0 0.28571428571547469 0 0.12318626960338119 0.35806369368234708 0 0 0.42857142857321201 0 0 0.28571428571547469 0 0.12318626960338119 0.35806369368234708 0 0.12318626960338119 0.35806369368234708 0 0.24676305227411319 0.28687957031901817 0 0.24734722211536869 0.42872490132986318 0 0.1205280434882494 0.2198107335145128 0 0.12318626960338119 0.35806369368234708 0 0.24676305227411319 0.28687957031901817 0 0.12318626960338119 0.35806369368234708 0 0.24734722211536869 0.42872490132986318 0 0.1237179148261041 0.50000000000170131 0 0.24734722211536869 0.42872490132986318 0 0.37092720430330528 0.3575352362405908 0 0.36988311095923349 0.50220080181584725 0 0.24676305227411319 0.28687957031901817 0 0.24734722211536869 0.42872490132986318 0 0.37092720430330528 0.3575352362405908 0 0.24676305227411319 0.28687957031901817 0 0.37092720430330528 0.3575352362405908 0 0.36915712373071241 0.21636596932123339 0 0.37092720430330528 0.3575352362405908 0 0.49672432738210071 0.28393829206612331 0 0.49462213035585811 0.42900362539316111 0 0.37092720430330528 0.3575352362405908 0 0.49672432738210071 0.28393829206612331 0 0.36915712373071241 0.21636596932123339 0 0.37092720430330528 0.3575352362405908 0 0.49462213035585811 0.42900362539316111 0 0.36988311095923349 0.50220080181584725 0 0.23239159885774061 0.13190444287250189 0 0.28571428571359381 0 0 0.35859653742646141 0.095659861108573122 0 0.28571428571359381 0 0 0.35859653742646141 0.095659861108573122 0 0.42857142857032021 0 0 0.23239159885774061 0.13190444287250189 0 0.35859653742646141 0.095659861108573122 0 0.36915712373071241 0.21636596932123339 0 0.23239159885774061 0.13190444287250189 0 0.24676305227411319 0.28687957031901817 0 0.36915712373071241 0.21636596932123339 0 0.35859653742646141 0.095659861108573122 0 0.36915712373071241 0.21636596932123339 0 0.49780213970257631 0.12951344063459669 0 0.49672432738210071 0.28393829206612331 0 0.36915712373071241 0.21636596932123339 0 0.49780213970257631 0.12951344063459669 0 0.49780213970257631 0.12951344063459669 0 0.42857142857032021 0 0 0.57142857142744297 0 0 0.35859653742646141 0.095659861108573122 0 0.49780213970257631 0.12951344063459669 0 0.42857142857032021 0 0 0.49780213970257631 0.12951344063459669 0 0.57142857142744297 0 0 0.63660835508033609 0.094591959883232241 0 0.71428571428496201 0 0 0.63660835508033609 0.094591959883232241 0 0.77046111744085066 0.12953438606218601 0 0.57142857142744297 0 0 0.71428571428496201 0 0 0.63660835508033609 0.094591959883232241 0 0.62906423254584809 0.2139119727193784 0 0.74962020231513216 0.28479798582519888 0 0.77046111744085066 0.12953438606218601 0 0.63660835508033609 0.094591959883232241 0 0.62906423254584809 0.2139119727193784 0 0.77046111744085066 0.12953438606218601 0 0.49780213970257631 0.12951344063459669 0 0.63660835508033609 0.094591959883232241 0 0.62906423254584809 0.2139119727193784 0 0.49672432738210071 0.28393829206612331 0 0.49780213970257631 0.12951344063459669 0 0.62906423254584809 0.2139119727193784 0 0.49672432738210071 0.28393829206612331 0 0.62906423254584809 0.2139119727193784 0 0.61877313365430409 0.35729950808777972 0 0.49672432738210071 0.28393829206612331 0 0.49462213035585811 0.42900362539316111 0 0.61877313365430409 0.35729950808777972 0 0.49462213035585811 0.42900362539316111 0 0.61877313365430409 0.35729950808777972 0 0.61994046021572546 0.50050770882833406 0 0.61877313365430409 0.35729950808777972 0 0.74395712453556107 0.42868954426104389 0 0.61994046021572546 0.50050770882833406 0 0.62906423254584809 0.2139119727193784 0 0.61877313365430409 0.35729950808777972 0 0.74962020231513216 0.28479798582519888 0 0.61877313365430409 0.35729950808777972 0 0.74395712453556107 0.42868954426104389 0 0.74962020231513216 0.28479798582519888 0 0.74962020231513216 0.28479798582519888 0 0.87039329201519555 0.35777862987572301 0 0.88067757021423154 0.21876991540137231 0 0.74395712453556107 0.42868954426104389 0 0.74962020231513216 0.28479798582519888 0 0.87039329201519555 0.35777862987572301 0 0.74395712453556107 0.42868954426104389 0 0.87039329201519555 0.35777862987572301 0 0.87402660110768737 0.50072468068975784 0 0.87039329201519555 0.35777862987572301 0 0.87402660110768737 0.50072468068975784 0 1 0.42857142857032021 0 0.87039329201519555 0.35777862987572301 0 1 0.28571428571359381 0 1 0.42857142857032021 0 0.87039329201519555 0.35777862987572301 0 0.88067757021423154 0.21876991540137231 0 1 0.28571428571359381 0 0.88067757021423154 0.21876991540137231 0 1 0.14285714285686729 0 1 0.28571428571359381 0 0.88067757021423154 0.21876991540137231 0 0.89542131320405993 0.10457868679576519 0 1 0.14285714285686729 0 0.89542131320405993 0.10457868679576519 0 0.85714285714248095 0 0 1 0 0 0.89542131320405993 0.10457868679576519 0 1 0.14285714285686729 0 1 0 0 0.71428571428496201 0 0 0.85714285714248095 0 0 0.77046111744085066 0.12953438606218601 0 0.89542131320405993 0.10457868679576519 0 0.85714285714248095 0 0 0.77046111744085066 0.12953438606218601 0 0.74962020231513216 0.28479798582519888 0 0.88067757021423154 0.21876991540137231 0 0.77046111744085066 0.12953438606218601 0 0.88067757021423154 0.21876991540137231 0 0.89542131320405993 0.10457868679576519 0 0.77046111744085066 0.12953438606218601 0 0.77107999172528308 0.87126586664953709 0 0.88289663992475431 0.7838324948760429 0 0.75462543859776565 0.71847561378613189 0 0.77107999172528308 0.87126586664953709 0 0.89597942421617771 0.89597942421617771 0 0.88289663992475431 0.7838324948760429 0 0.77107999172528308 0.87126586664953709 0 0.89597942421617771 0.89597942421617771 0 0.85714285714248095 1 0 0.77107999172528308 0.87126586664953709 0 0.71428571428496201 1 0 0.85714285714248095 1 0 0.89597942421617771 0.89597942421617771 0 1 1 0 1 0.85714285714248095 0 0.89597942421617771 0.89597942421617771 0 0.85714285714248095 1 0 1 1 0 0.88289663992475431 0.7838324948760429 0 1 0.71428571428496201 0 1 0.85714285714248095 0 0.89597942421617771 0.89597942421617771 0 0.88289663992475431 0.7838324948760429 0 1 0.85714285714248095 0 0.88289663992475431 0.7838324948760429 0 0.87569498500930032 0.64584549317696871 0 1 0.71428571428496201 0 0.87569498500930032 0.64584549317696871 0 1 0.57142857142744297 0 1 0.71428571428496201 0 0.87402660110768737 0.50072468068975784 0 1 0.42857142857032021 0 1 0.57142857142744297 0 0.87569498500930032 0.64584549317696871 0 0.87402660110768737 0.50072468068975784 0 1 0.57142857142744297 0 0.87569498500930032 0.64584549317696871 0 0.87402660110768737 0.50072468068975784 0 0.75217156042298328 0.57142857143374093 0 0.74395712453556107 0.42868954426104389 0 0.87402660110768737 0.50072468068975784 0 0.75217156042298328 0.57142857143374093 0 0.88289663992475431 0.7838324948760429 0 0.87569498500930032 0.64584549317696871 0 0.75462543859776565 0.71847561378613189 0 0.87569498500930032 0.64584549317696871 0 0.75217156042298328 0.57142857143374093 0 0.75462543859776565 0.71847561378613189 0 0.75462543859776565 0.71847561378613189 0 0.62020719605389174 0.64337743701966787 0 0.62820860079938645 0.78795395941460822 0 0.75217156042298328 0.57142857143374093 0 0.75462543859776565 0.71847561378613189 0 0.62020719605389174 0.64337743701966787 0 0.74395712453556107 0.42868954426104389 0 0.75217156042298328 0.57142857143374093 0 0.61994046021572546 0.50050770882833406 0 0.75217156042298328 0.57142857143374093 0 0.61994046021572546 0.50050770882833406 0 0.62020719605389174 0.64337743701966787 0 0.49462213035585811 0.42900362539316111 0 0.61994046021572546 0.50050770882833406 0 0.49336243329648061 0.57404262755753699 0 0.61994046021572546 0.50050770882833406 0 0.62020719605389174 0.64337743701966787 0 0.49336243329648061 0.57404262755753699 0 0.62020719605389174 0.64337743701966787 0 0.49336243329648061 0.57404262755753699 0 0.49462248589941132 0.72194975613875201 0 0.62020719605389174 0.64337743701966787 0 0.62820860079938645 0.78795395941460822 0 0.49462248589941132 0.72194975613875201 0 0.62820860079938645 0.78795395941460822 0 0.49817729930567289 0.8734572123725528 0 0.49462248589941132 0.72194975613875201 0 0.62820860079938645 0.78795395941460822 0 0.63663603550854941 0.90653540768733964 0 0.49817729930567289 0.8734572123725528 0 0.77107999172528308 0.87126586664953709 0 0.62820860079938645 0.78795395941460822 0 0.63663603550854941 0.90653540768733964 0 0.77107999172528308 0.87126586664953709 0 0.75462543859776565 0.71847561378613189 0 0.62820860079938645 0.78795395941460822 0 0.77107999172528308 0.87126586664953709 0 0.63663603550854941 0.90653540768733964 0 0.71428571428496201 1 0 0.63663603550854941 0.90653540768733964 0 0.71428571428496201 1 0 0.57142857142744297 1 0 0.63663603550854941 0.90653540768733964 0 0.49817729930567289 0.8734572123725528 0 0.57142857142744297 1 0 0.49817729930567289 0.8734572123725528 0 0.35714285714195693 0.91161422340059473 0 0.42857142857032021 1 0 
[...]
<PointData Scalars="" Vectors="displacement," Tensors="">
<DataArray type="Float64" Name="displacement" NumberOfComponents="3" format="ascii">
7.0962730354156957e-05 4.8708081211853466e-07 0 0.1079159117590162 0.0010008415712199948 0 0.0001681830907551516 1.740696044566561e-06 0 7.0962730354156957e-05 4.8708081211853466e-07 0 0.1079159117590162 0.0010008415712199948 0 0.14284043164219534 2.9964076964697553e-06 0 0.0001681830907551516 1.740696044566561e-06 0 0.12732406556633521 0.0010296962961446755 0 0.00014661142046570514 8.6324795490370977e-07 0 0.1079159117590162 0.0010008415712199948 0 0.0001681830907551516 1.740696044566561e-06 0 0.12732406556633521 0.0010296962961446755 0 0.1079159117590162 0.0010008415712199948 0 0.12732406556633521 0.0010296962961446755 0 0.24143564716930963 0.0017807798115878511 0 0.12732406556633521 0.0010296962961446755 0 0.24143564716930963 0.0017807798115878511 0 0.2646096625133218 6.3574008979048257e-05 0 0.24143564716930963 0.0017807798115878511 0 0.14284043164219534 2.9964076964697553e-06 0 0.28572738174844842 3.4363700772829001e-06 0 0.1079159117590162 0.0010008415712199948 0 0.24143564716930963 0.0017807798115878511 0 0.14284043164219534 2.9964076964697553e-06 0 0.00015473385255843604 -1.0914086005755029e-06 0 0.1324399549482965 -0.0007904312773959611 0 0.13339344844854101 -0.0035761697412695359 0 0.12732406556633521 0.0010296962961446755 0 0.00014661142046570514 8.6324795490370977e-07 0 0.1324399549482965 -0.0007904312773959611 0 0.00015473385255843604 -1.0914086005755029e-06 0 0.00014661142046570514 8.6324795490370977e-07 0 0.1324399549482965 -0.0007904312773959611 0 0.1324399549482965 -0.0007904312773959611 0 0.2646096625133218 6.3574008979048257e-05 0 0.26855210655365963 -0.0038122631975288312 0 0.12732406556633521 0.0010296962961446755 0 0.1324399549482965 -0.0007904312773959611 0 0.2646096625133218 6.3574008979048257e-05 0 0.1324399549482965 -0.0007904312773959611 0 0.26855210655365963 -0.0038122631975288312 0 0.13339344844854101 -0.0035761697412695359 0 0.26855210655365963 -0.0038122631975288312 0 0.4040445555799772 -0.0019415062616030812 0 0.4050360838102573 -0.0078805065828296342 0 0.2646096625133218 6.3574008979048257e-05 0 0.26855210655365963 -0.0038122631975288312 0 0.4040445555799772 -0.0019415062616030812 0 0.2646096625133218 6.3574008979048257e-05 0 0.4040445555799772 -0.0019415062616030812 0 0.39291153857917865 0.0017142321668132104 0 0.4040445555799772 -0.0019415062616030812 0 0.54031748686877823 0.0011673131963376431 0 0.54707076392204823 -0.0045175947345232094 0 0.4040445555799772 -0.0019415062616030812 0 0.54031748686877823 0.0011673131963376431 0 0.39291153857917865 0.0017142321668132104 0 0.4040445555799772 -0.0019415062616030812 0 0.54707076392204823 -0.0045175947345232094 0 0.4050360838102573 -0.0078805065828296342 0 0.24143564716930963 0.0017807798115878511 0 0.28572738174844842 3.4363700772829001e-06 0 0.3698775927883729 0.0017256616059026888 0 0.28572738174844842 3.4363700772829001e-06 0 0.3698775927883729 0.0017256616059026888 0 0.42857876873941936 4.5587832087727748e-06 0 0.24143564716930963 0.0017807798115878511 0 0.3698775927883729 0.0017256616059026888 0 0.39291153857917865 0.0017142321668132104 0 0.24143564716930963 0.0017807798115878511 0 0.2646096625133218 6.3574008979048257e-05 0 0.39291153857917865 0.0017142321668132104 0 0.3698775927883729 0.0017256616059026888 0 0.39291153857917865 0.0017142321668132104 0 0.52129071550569406 0.0033185825526424002 0 0.54031748686877823 0.0011673131963376431 0 0.39291153857917865 0.0017142321668132104 0 0.52129071550569406 0.0033185825526424002 0 0.52129071550569406 0.0033185825526424002 0 0.42857876873941936 4.5587832087727748e-06 0 0.57144748641489274 7.4187712181370707e-06 0 0.3698775927883729 0.0017256616059026888 0 0.52129071550569406 0.0033185825526424002 0 0.42857876873941936 4.5587832087727748e-06 0 0.52129071550569406 0.0033185825526424002 0 0.57144748641489274 7.4187712181370707e-06 0 0.66266711012130974 0.0039636603283243485 0 0.71431070811891728 1.0766596512977461e-05 0 0.66266711012130974 0.0039636603283243485 0 0.82100311444289331 0.0079331074149447608 0 0.57144748641489274 7.4187712181370707e-06 0 0.71431070811891728 1.0766596512977461e-05 0 0.66266711012130974 0.0039636603283243485 0 0.68033394571649519 0.004735089860352812 0 0.83541315507721536 0.0057672499964059581 0 0.82100311444289331 0.0079331074149447608 0 0.66266711012130974 0.0039636603283243485 0 0.68033394571649519 0.004735089860352812 0 0.82100311444289331 0.0079331074149447608 0 0.52129071550569406 0.0033185825526424002 0 0.66266711012130974 0.0039636603283243485 0 0.68033394571649519 0.004735089860352812 0 0.54031748686877823 0.0011673131963376431 0 0.52129071550569406 0.0033185825526424002 0 0.68033394571649519 0.004735089860352812 0 0.54031748686877823 0.0011673131963376431 0 0.68033394571649519 0.004735089860352812 0 0.6882681795361052 0.00030824480681046663 0 0.54031748686877823 0.0011673131963376431 0 0.54707076392204823 -0.0045175947345232094 0 0.6882681795361052 0.00030824480681046663 0 0.54707076392204823 -0.0045175947345232094 0 0.6882681795361052 0.00030824480681046663 0 0.69535371673869817 -0.0068895597594917238 0 0.6882681795361052 0.00030824480681046663 0 0.84537119559037011 -0.00016574623510164462 0 0.69535371673869817 -0.0068895597594917238 0 0.68033394571649519 0.004735089860352812 0 0.6882681795361052 0.00030824480681046663 0 0.83541315507721536 0.0057672499964059581 0 0.6882681795361052 0.00030824480681046663 0 0.84537119559037011 -0.00016574623510164462 0 0.83541315507721536 0.0057672499964059581 0 0.83541315507721536 0.0057672499964059581 0 0.99817596236575568 0.0067705650545114241 0 0.9803686235206478 0.010663763908224514 0 0.84537119559037011 -0.00016574623510164462 0 0.83541315507721536 0.0057672499964059581 0 0.99817596236575568 0.0067705650545114241 0 0.84537119559037011 -0.00016574623510164462 0 0.99817596236575568 0.0067705650545114241 0 1.0132905789983775 0.00078570215079440788 0 0.99817596236575568 0.0067705650545114241 0 1.0132905789983775 0.00078570215079440788 0 1.1777796769953475 0.0091457554047668817 0 0.99817596236575568 0.0067705650545114241 0 1.1550345838960068 0.013844566381464017 0 1.1777796769953475 0.0091457554047668817 0 0.99817596236575568 0.0067705650545114241 0 0.9803686235206478 0.010663763908224514 0 1.1550345838960068 0.013844566381464017 0 0.9803686235206478 0.010663763908224514 0 1.1062193649529339 0.015271589395326718 0 1.1550345838960068 0.013844566381464017 0 0.9803686235206478 0.010663763908224514 0 0.95424010582001406 0.0099892846512781575 0 1.1062193649529339 0.015271589395326718 0 0.95424010582001406 0.0099892846512781575 0 0.85716542283191388 1.3013785648314962e-05 0 1.0001186369404294 4.1023696794912429e-05 0 0.95424010582001406 0.0099892846512781575 0 1.1062193649529339 0.015271589395326718 0 1.0001186369404294 4.1023696794912429e-05 0 0.71431070811891728 1.0766596512977461e-05 0 0.85716542283191388 1.3013785648314962e-05 0 0.82100311444289331 0.0079331074149447608 0 0.95424010582001406 0.0099892846512781575 0 0.85716542283191388 1.3013785648314962e-05 0 0.82100311444289331 0.0079331074149447608 0 0.83541315507721536 0.0057672499964059581 0 0.9803686235206478 0.010663763908224514 0 0.82100311444289331 0.0079331074149447608 0 0.9803686235206478 0.010663763908224514 0 0.95424010582001406 0.0099892846512781575 0 0.82100311444289331 0.0079331074149447608 0 0.81255875913003295 -0.026215189198582636 0 0.98271532509815396 -0.013906118676769002 0 0.83806506002352765 -0.017102622193546531 0 0.81255875913003295 -0.026215189198582636 0 0.95156367608815429 -0.018710862778256745 0 0.98271532509815396 -0.013906118676769002 0 0.81255875913003295 -0.026215189198582636 0 0.95156367608815429 -0.018710862778256745 0 0.83991838270967856 -0.025152072514013395 0 0.81255875913003295 -0.026215189198582636 0 0.6919621847705858 -0.030689553967224815 0 0.83991838270967856 -0.025152072514013395 0 0.95156367608815429 -0.018710862778256745 0 1.0000301385243255 1.5546024195089348e-06 0 1.1131300573975045 -0.0066896597454042918 0 0.95156367608815429 -0.018710862778256745 0 0.83991838270967856 -0.025152072514013395 0 1.0000301385243255 1.5546024195089348e-06 0 0.98271532509815396 -0.013906118676769002 0 1.1599880613183748 -0.0022368103848708137 0 1.1131300573975045 -0.0066896597454042918 0 0.95156367608815429 -0.018710862778256745 0 0.98271532509815396 -0.013906118676769002 0 1.1131300573975045 -0.0066896597454042918 0 0.98271532509815396 -0.013906118676769002 0 1.0054134562133592 -0.0066467798914533272 0 1.1599880613183748 -0.0022368103848708137 0 1.0054134562133592 -0.0066467798914533272 0 1.179502274846348 0.0034447341178404116 0 1.1599880613183748 -0.0022368103848708137 0 1.0132905789983775 0.00078570215079440788 0 1.1777796769953475 0.0091457554047668817 0 1.179502274846348 0.0034447341178404116 0 1.0054134562133592 -0.0066467798914533272 0 1.0132905789983775 0.00078570215079440788 0 1.179502274846348 0.0034447341178404116 0 1.0054134562133592 -0.0066467798914533272 0 1.0132905789983775 0.00078570215079440788 0 0.8549978207003861 -0.007857502960344499 0 0.84537119559037011 -0.00016574623510164462 0 1.0132905789983775 0.00078570215079440788 0 0.8549978207003861 -0.007857502960344499 0 0.98271532509815396 -0.013906118676769002 0 1.0054134562133592 -0.0066467798914533272 0 0.83806506002352765 -0.017102622193546531 0 1.0054134562133592 -0.0066467798914533272 0 0.8549978207003861 -0.007857502960344499 0 0.83806506002352765 -0.017102622193546531 0 0.83806506002352765 -0.017102622193546531 0 0.6866889087450091 -0.015618065605700924 0 0.67081405841828956 -0.024303502161711135 0 0.8549978207003861 -0.007857502960344499 0 0.83806506002352765 -0.017102622193546531 0 0.6866889087450091 -0.015618065605700924 0 0.84537119559037011 -0.00016574623510164462 0 0.8549978207003861 -0.007857502960344499 0 0.69535371673869817 -0.0068895597594917238 0 0.8549978207003861 -0.007857502960344499 0 0.69535371673869817 -0.0068895597594917238 0 0.6866889087450091 -0.015618065605700924 0 0.54707076392204823 -0.0045175947345232094 0 0.69535371673869817 -0.0068895597594917238 0 0.54364267182896231 -0.012153920962344484 0 0.69535371673869817 -0.0068895597594917238 0 0.6866889087450091 -0.015618065605700924 0 0.54364267182896231 -0.012153920962344484 0 0.6866889087450091 -0.015618065605700924 0 0.54364267182896231 -0.012153920962344484 0 0.53105218983686409 -0.02012412398534141 0 0.6866889087450091 -0.015618065605700924 0 0.67081405841828956 -0.024303502161711135 0 0.53105218983686409 -0.02012412398534141 0 0.67081405841828956 -0.024303502161711135 0 0.50836394868126922 -0.026424735661280105 0 0.53105218983686409 -0.02012412398534141 0 0.67081405841828956 -0.024303502161711135 0 0.647539675336815 -0.029198575169459031 0 0.50836394868126922 -0.026424735661280105 0 0.81255875913003295 -0.026215189198582636 0 0.67081405841828956 -0.024303502161711135 0 0.647539675336815 -0.029198575169459031 0 0.81255875913003295 -0.026215189198582636 0 0.83806506002352765 -0.017102622193546531 0 0.67081405841828956 -0.024303502161711135 0 0.81255875913003295 -0.026215189198582636 0 0.647539675336815 -0.029198575169459031 0 0.6919621847705858 -0.030689553967224815 0 0.647539675336815 -0.029198575169459031 0 0.6919621847705858 -0.030689553967224815 0 0.55029949986859039 -0.029426260527331723 0 0.647539675336815 -0.029198575169459031 0 0.50836394868126922 -0.026424735661280105 0 0.55029949986859039 -0.029426260527331723 0 0.50836394868126922 -0.026424735661280105 0 0.35539356080240503 -0.02181836343926398 0 0.41036881951694415 -0.024710984230995228 0 0.50836394868126922 -0.026424735661280105 0 0.41036881951694415 -0.024710984230995228 0 0.55029949986859039 -0.029426260527331723 0 0.50836394868126922 -0.026424735661280105 0 0.38267873236383809 -0.020331319734780365 0 0.53105218983686409 -0.02012412398534141 0 0.50836394868126922 -0.026424735661280105 0 0.38267873236383809 -0.020331319734780365 0 0.35539356080240503 -0.02181836343926398 0 0.38267873236383809 -0.020331319734780365 0 0.35539356080240503 -0.02181836343926398 0 0.23241624119046511 -0.015981558830716076 0 0.38267873236383809 -0.020331319734780365 0 0.25679871835273932 -0.013514044557272922 0 0.23241624119046511 -0.015981558830716076 0 0.35539356080240503 -0.02181836343926398 0 0.41036881951694415 -0.024710984230995228 0 0.2725593390660298 -0.018303739230471964 0 0.35539356080240503 -0.02181836343926398 0 0.23241624119046511 -0.015981558830716076 0 0.2725593390660298 -0.018303739230471964 0 0.54707076392204823 -0.0045175947345232094 0 0.54364267182896231 -0.012153920962344484 0 0.4050360838102573 -0.0078805065828296342 0 0.54364267182896231 -0.012153920962344484 0 0.39578650181066038 -0.014786937936894382 0 0.4050360838102573 -0.0078805065828296342 0 0.38267873236383809 -0.020331319734780365 0 0.53105218983686409 -0.02012412398534141 0 0.39578650181066038 -0.014786937936894382 0 0.54364267182896231 -0.012153920962344484 0 0.53105218983686409 -0.02012412398534141 0 0.39578650181066038 -0.014786937936894382 0 0.39578650181066038 -0.014786937936894382 0 0.26729759842630901 -0.008779620879641398 0 0.25679871835273932 -0.013514044557272922 0 0.38267873236383809 -0.020331319734780365 0 0.39578650181066038 -0.014786937936894382 0 0.25679871835273932 -0.013514044557272922 0 0.39578650181066038 -0.014786937936894382 0 0.4050360838102573 -0.0078805065828296342 0 0.26729759842630901 -0.008779620879641398 0 0.26855210655365963 -0.0038122631975288312 0 0.4050360838102573 -0.0078805065828296342 0 0.26729759842630901 -0.008779620879641398 0 0.26729759842630901 -0.008779620879641398 0 0.13219518778709749 -0.0067005623512799706 0 0.13339344844854101 -0.0035761697412695359 0 0.26855210655365963 -0.0038122631975288312 0 0.26729759842630901 -0.008779620879641398 0 0.13339344844854101 -0.0035761697412695359 0 0.26729759842630901 -0.008779620879641398 0 0.25679871835273932 -0.013514044557272922 0 0.13219518778709749 -0.0067005623512799706 0 0.25679871835273932 -0.013514044557272922 0 0.13219518778709749 -0.0067005623512799706 0 0.12742221492474298 -0.0090481685155449024 0 0.13219518778709749 -0.0067005623512799706 0 0.00014887172522585871 -5.7053457957933637e-06 0 0.12742221492474298 -0.0090481685155449024 0 0.13219518778709749 -0.0067005623512799706 0 0.00014887172522585871 -5.7053457957933637e-06 0 0.00015205752913303834 -3.4298533199209909e-06 0 0.13219518778709749 -0.0067005623512799706 0 0.13339344844854101 -0.0035761697412695359 0 0.00015205752913303834 -3.4298533199209909e-06 0 0.00015473385255843604 -1.0914086005755029e-06 0 0.13339344844854101 -0.0035761697412695359 0 0.00015205752913303834 -3.4298533199209909e-06 0 0.23241624119046511 -0.015981558830716076 0 0.10391144206760769 -0.0082816775016538689 0 0.1353039747786815 -0.010200774965502422 0 0.23241624119046511 -0.015981558830716076 0 0.1353039747786815 -0.010200774965502422 0 0.2725593390660298 -0.018303739230471964 0 0.25679871835273932 -0.013514044557272922 0 0.23241624119046511 -0.015981558830716076 0 0.12742221492474298 -0.0090481685155449024 0 0.23241624119046511 -0.015981558830716076 0 0.12742221492474298 -0.0090481685155449024 0 0.10391144206760769 -0.0082816775016538689 0 0.12742221492474298 -0.0090481685155449024 0 0.00014483940542694154 -6.888046283429429e-06 0 0.10391144206760769 -0.0082816775016538689 0 0.00014887172522585871 -5.7053457957933637e-06 0 0.12742221492474298 -0.0090481685155449024 0 0.00014483940542694154 -6.888046283429429e-06 0 0.10391144206760769 -0.0082816775016538689 0 0.00013258470621954827 -6.3737187457939267e-06 0 0.1353039747786815 -0.010200774965502422 0 0.00014483940542694154 -6.888046283429429e-06 0 0.10391144206760769 -0.0082816775016538689 0 0.00013258470621954827 -6.3737187457939267e-06 0 0.00013258470621954827 -6.3737187457939267e-06 0 0.098152207500853808 -0.0068737414186873661 0 0.00013439346291311074 -5.0794007097844541e-06 0 0.00013258470621954827 -6.3737187457939267e-06 0 0.098152207500853808 -0.0068737414186873661 0 0.1353039747786815 -0.010200774965502422 0 0.1353039747786815 -0.010200774965502422 0 0.20317080501967566 -0.013477400749024681 0 0.2725593390660298 -0.018303739230471964 0 0.098152207500853808 -0.0068737414186873661 0 0.1353039747786815 -0.010200774965502422 0 0.20317080501967566 -0.013477400749024681 0 0.098152207500853808 -0.0068737414186873661 0 0.20317080501967566 -0.013477400749024681 0 0.11830852472091083 -0.0071542766470614151 0 0.20317080501967566 -0.013477400749024681 0 0.11830852472091083 -0.0071542766470614151 0 0.2592020227438574 -0.014045949055250835 0 0.098152207500853808 -0.0068737414186873661 0 0.11830852472091083 -0.0071542766470614151 0 0.00013439346291311074 -5.0794007097844541e-06 0 0.11830852472091083 -0.0071542766470614151 0 0.00013439346291311074 -5.0794007097844541e-06 0 0.00013096422393434889 -3.3956838614653698e-06 0 0.080559541520220893 -0.003534886386415536 0 0.00013096422393434889 -3.3956838614653698e-06 0 0.00012973396104769679 -2.8368257814512457e-06 0 0.11830852472091083 -0.0071542766470614151 0 0.080559541520220893 -0.003534886386415536 0 0.00013096422393434889 -3.3956838614653698e-06 0 0.00012973396104769679 -2.8368257814512457e-06 0 0.11480759837087084 -0.0024433489980101833 0 0.00013169694728795139 1.711207083438397e-07 0 0.080559541520220893 -0.003534886386415536 0 0.00012973396104769679 -2.8368257814512457e-06 0 0.11480759837087084 -0.0024433489980101833 0 0.11480759837087084 -0.0024433489980101833 0 0.18892612155400337 -0.007824669784893868 0 0.2497858594997403 -0.0056143177274392804 0 0.080559541520220893 -0.003534886386415536 0 0.11480759837087084 -0.0024433489980101833 0 0.18892612155400337 -0.007824669784893868 0 0.11830852472091083 -0.0071542766470614151 0 0.18892612155400337 -0.007824669784893868 0 0.2592020227438574 -0.014045949055250835 0 0.11830852472091083 -0.0071542766470614151 0 0.080559541520220893 -0.003534886386415536 0 0.18892612155400337 -0.007824669784893868 0 0.31764781228410249 -0.012288168474894697 0 0.38855745151020438 -0.019381780359805735 0 0.2592020227438574 -0.014045949055250835 0 0.18892612155400337 -0.007824669784893868 0 0.31764781228410249 -0.012288168474894697 0 0.2592020227438574 -0.014045949055250835 0 0.31764781228410249 -0.012288168474894697 0 0.2497858594997403 -0.0056143177274392804 0 0.37815823960323586 -0.0082805670425527538 0 0.18892612155400337 -0.007824669784893868 0 0.31764781228410249 -0.012288168474894697 0 0.2497858594997403 -0.0056143177274392804 0 0.31764781228410249 -0.012288168474894697 0 0.37815823960323586 -0.0082805670425527538 0 0.44119896919353524 -0.015603279509772968 0 0.37815823960323586 -0.0082805670425527538 0 0.44119896919353524 -0.015603279509772968 0 0.49932418188849664 -0.0098576987850980506 0 0.44119896919353524 -0.015603279509772968 0 0.38855745151020438 -0.019381780359805735 0 0.51386541844099809 -0.02292820201464851 0 0.31764781228410249 -0.012288168474894697 0 0.44119896919353524 -0.015603279509772968 0 0.38855745151020438 -0.019381780359805735 0 0.38855745151020438 -0.019381780359805735 0 0.33339260617696131 -0.020123211115776064 0 0.46633945946364913 -0.025606285678976288 0 0.41036881951694415 -0.024710984230995228 0 0.33339260617696131 -0.020123211115776064 0 0.46633945946364913 -0.025606285678976288 0 0.20317080501967566 -0.013477400749024681 0 0.33339260617696131 -0.020123211115776064 0 0.2725593390660298 -0.018303739230471964 0 0.41036881951694415 -0.024710984230995228 0 0.33339260617696131 -0.020123211115776064 0 0.2725593390660298 -0.018303739230471964 0 0.38855745151020438 -0.019381780359805735 0 0.33339260617696131 -0.020123211115776064 0 0.2592020227438574 -0.014045949055250835 0 0.20317080501967566 -0.013477400749024681 0 0.33339260617696131 -0.020123211115776064 0 0.2592020227438574 -0.014045949055250835 0 0.20845831088555489 0.0018472598664500493 0 0.14283481964575043 3.1446772509653012e-06 0 0.28571334602028126 3.8458232177199394e-06 0 0.20845831088555489 0.00184725986645004