<?xml version="1.0"?>
<VTKFile type="UnstructuredGrid" version="0.1" byte_order="LittleEndian">
<UnstructuredGrid>
<Piece NumberOfPoints="3186" NumberOfCells="1062">
<Points>
<DataArray type="Float64" NumberOfComponents="3" format="ascii">
0 0 0 0.14285714285686729 0 0 0.10402057578810379 0.10402057578810379 0 0 0 0 0.10402057578810379 0.10402057578810379 0 0 0.14285714285686729 0 0.14285714285686729 0 0 0.10402057578810379 0.10402057578810379 0 0.21622614199724011 0.1170905489967794 0 0.10402057578810379 0.10402057578810379 0 0.12873413335214179 0.22892000827465461 0 0.21622614199724011 0.1170905489967794 0 0.10402057578810379 0.10402057578810379 0 0 0.14285714285686729 0 0.12873413335214179 0.22892000827465461 0 0 0.14285714285686729 0 0 0.28571428571359381 0 0.12873413335214179 0.22892000827465461 0 0.093737460955887239 0.36334567880837831 0 0 0.28571428571359381 0 0 0.42857142857032021 0 0.093737460955887239 0.36334567880837831 0 0 0.28571428571359381 0 0.12873413335214179 0.22892000827465461 0 0.093737460955887239 0.36334567880837831 0 0.12873413335214179 0.22892000827465461 0 0.21341038379882901 0.37169997079090128 0 0.12873413335214179 0.22892000827465461 0 0.28183877965613813 0.2453094238274868 0 0.21622614199724011 0.1170905489967794 0 0.12873413335214179 0.22892000827465461 0 0.21341038379882901 0.37169997079090128 0 0.28183877965613813 0.2453094238274868 0 0.21341038379882901 0.37169997079090128 0 0.28183877965613813 0.2453094238274868 0 0.35714458040172548 0.37949340689832922 0 0.28183877965613813 0.2453094238274868 0 0.35714458040172548 0.37949340689832922 0 0.42857142856968189 0.24782843958009351 0 0.28183877965613813 0.2453094238274868 0 0.35419193461659548 0.1242932860904311 0 0.42857142856968189 0.24782843958009351 0 0.28183877965613813 0.2453094238274868 0 0.35419193461659548 0.1242932860904311 0 0.21622614199724011 0.1170905489967794 0 0.35419193461659548 0.1242932860904311 0 0.28571428571359381 0 0 0.21622614199724011 0.1170905489967794 0 0.35419193461659548 0.1242932860904311 0 0.28571428571359381 0 0 0.42857142857032021 0 0 0.14285714285686729 0 0 0.28571428571359381 0 0 0.21622614199724011 0.1170905489967794 0 0.091975849439628388 0.63906079561326345 0 0.21183497469564019 0.63320029487793694 0 0.12868163055416221 0.76697400229767487 0 0 0.71428571428496201 0 0.091975849439628388 0.63906079561326345 0 0.12868163055416221 0.76697400229767487 0 0.091975849439628388 0.63906079561326345 0 0 0.57142857142744297 0 0.12654278762846541 0.50182270069242174 0 0 0.71428571428496201 0 0.091975849439628388 0.63906079561326345 0 0 0.57142857142744297 0 0.091975849439628388 0.63906079561326345 0 0.12654278762846541 0.50182270069242174 0 0.21183497469564019 0.63320029487793694 0 0 0.57142857142744297 0 0.12654278762846541 0.50182270069242174 0 0 0.42857142857032021 0 0.093737460955887239 0.36334567880837831 0 0.12654278762846541 0.50182270069242174 0 0 0.42857142857032021 0 0.093737460955887239 0.36334567880837831 0 0.21341038379882901 0.37169997079090128 0 0.12654278762846541 0.50182270069242174 0 0.21341038379882901 0.37169997079090128 0 0.12654278762846541 0.50182270069242174 0 0.28571428571288859 0.50512834069527579 0 0.35714458040172548 0.37949340689832922 0 0.28571428571288859 0.50512834069527579 0 0.42857911129460902 0.5051327763182708 0 0.21341038379882901 0.37169997079090128 0 0.35714458040172548 0.37949340689832922 0 0.28571428571288859 0.50512834069527579 0 0.28571428571288859 0.50512834069527579 0 0.35657912408519199 0.6297632267709089 0 0.42857911129460902 0.5051327763182708 0 0.12654278762846541 0.50182270069242174 0 0.28571428571288859 0.50512834069527579 0 0.21183497469564019 0.63320029487793694 0 0.28571428571288859 0.50512834069527579 0 0.21183497469564019 0.63320029487793694 0 0.35657912408519199 0.6297632267709089 0 0.35657912408519199 0.6297632267709089 0 0.42876602422768972 0.75267652020288756 0 0.28454251053718921 0.75357332720455328 0 0.21183497469564019 0.63320029487793694 0 0.35657912408519199 0.6297632267709089 0 0.28454251053718921 0.75357332720455328 0 0.21183497469564019 0.63320029487793694 0 0.28454251053718921 0.75357332720455328 0 0.12868163055416221 0.76697400229767487 0 0.50003783804313584 0.62886810132652948 0 0.57146100403685018 0.75258289532342593 0 0.42876602422768972 0.75267652020288756 0 0.35657912408519199 0.6297632267709089 0 0.50003783804313584 0.62886810132652948 0 0.42876602422768972 0.75267652020288756 0 0.35657912408519199 0.6297632267709089 0 0.50003783804313584 0.62886810132652948 0 0.42857911129460902 0.5051327763182708 0 0.50003783804313584 0.62886810132652948 0 0.42857911129460902 0.5051327763182708 0 0.57143682973041188 0.50513310862866234 0 0.35714458040172548 0.37949340689832922 0 0.42857911129460902 0.5051327763182708 0 0.50000265683637624 0.3797679478844822 0 0.42857911129460902 0.5051327763182708 0 0.50000265683637624 0.3797679478844822 0 0.57143682973041188 0.50513310862866234 0 0.6428589620457259 0.38113747419351418 0 0.71689882325258081 0.50562151542895928 0 0.57143682973041188 0.50513310862866234 0 0.50000265683637624 0.3797679478844822 0 0.6428589620457259 0.38113747419351418 0 0.57143682973041188 0.50513310862866234 0 0.6428589620457259 0.38113747419351418 0 0.71689882325258081 0.50562151542895928 0 0.78571428571267199 0.38141042586853341 0 0.71689882325258081 0.50562151542895928 0 0.57143682973041188 0.50513310862866234 0 0.6428688546313952 0.62885301731806609 0 0.50003783804313584 0.62886810132652948 0 0.57143682973041188 0.50513310862866234 0 0.6428688546313952 0.62885301731806609 0 0.71689882325258081 0.50562151542895928 0 0.6428688546313952 0.62885301731806609 0 0.7865654166374938 0.63474444568669874 0 0.6428688546313952 0.62885301731806609 0 0.7865654166374938 0.63474444568669874 0 0.71537080136980369 0.7565812122385458 0 0.50003783804313584 0.62886810132652948 0 0.6428688546313952 0.62885301731806609 0 0.57146100403685018 0.75258289532342593 0 0.6428688546313952 0.62885301731806609 0 0.57146100403685018 0.75258289532342593 0 0.71537080136980369 0.7565812122385458 0 0.49927531931040692 0.1259400136946118 0 0.42857142857032021 0 0 0.57142857142744297 0 0 0.35419193461659548 0.1242932860904311 0 0.49927531931040692 0.1259400136946118 0 0.42857142857032021 0 0 0.35419193461659548 0.1242932860904311 0 0.49927531931040692 0.1259400136946118 0 0.42857142856968189 0.24782843958009351 0 0.35714458040172548 0.37949340689832922 0 0.50000265683637624 0.3797679478844822 0 0.42857142856968189 0.24782843958009351 0 0.50000265683637624 0.3797679478844822 0 0.42857142856968189 0.24782843958009351 0 0.57134283277699616 0.25528695228377429 0 0.49927531931040692 0.1259400136946118 0 0.42857142856968189 0.24782843958009351 0 0.57134283277699616 0.25528695228377429 0 0.57134283277699616 0.25528695228377429 0 0.71335089116972128 0.25578338314493299 0 0.64223892332544308 0.130274960827549 0 0.6428589620457259 0.38113747419351418 0 0.57134283277699616 0.25528695228377429 0 0.71335089116972128 0.25578338314493299 0 0.50000265683637624 0.3797679478844822 0 0.6428589620457259 0.38113747419351418 0 0.57134283277699616 0.25528695228377429 0 0.6428589620457259 0.38113747419351418 0 0.71335089116972128 0.25578338314493299 0 0.78571428571267199 0.38141042586853341 0 0.71335089116972128 0.25578338314493299 0 0.64223892332544308 0.130274960827549 0 0.78018926648548503 0.12559094919453551 0 0.49927531931040692 0.1259400136946118 0 0.57134283277699616 0.25528695228377429 0 0.64223892332544308 0.130274960827549 0 0.64223892332544308 0.130274960827549 0 0.57142857142744297 0 0 0.71428571428496201 0 0 0.49927531931040692 0.1259400136946118 0 0.64223892332544308 0.130274960827549 0 0.57142857142744297 0 0 0.64223892332544308 0.130274960827549 0 0.71428571428496201 0 0 0.78018926648548503 0.12559094919453551 0 0.71428571428496201 0 0 0.78018926648548503 0.12559094919453551 0 0.85714285714248095 0 0 0.78018926648548503 0.12559094919453551 0 0.89542131320406015 0.10457868679576519 0 0.86802342313663505 0.2373869704637242 0 0.89542131320406015 0.10457868679576519 0 1 0.14285714285686729 0 0.86802342313663505 0.2373869704637242 0 0.89542131320406015 0.10457868679576519 0 0.85714285714248095 0 0 1 0 0 0.78018926648548503 0.12559094919453551 0 0.89542131320406015 0.10457868679576519 0 0.85714285714248095 0 0 0.89542131320406015 0.10457868679576519 0 1 0 0 1 0.14285714285686729 0 1 0.14285714285686729 0 1.1045786867956009 0.1045786867955263 0 1.11654878083672 0.2171580770020253 0 1 0 0 1 0.14285714285686729 0 1.1045786867956009 0.1045786867955263 0 1 0 0 1.1045786867956009 0.1045786867955263 0 1.142857142857143 0 0 1.120408926261548 0.35723491808527941 0 1 0.28571428571359381 0 1 0.42857142857032021 0 1.120408926261548 0.35723491808527941 0 1.11654878083672 0.2171580770020253 0 1 0.28571428571359381 0 1 0.14285714285686729 0 1.11654878083672 0.2171580770020253 0 1 0.28571428571359381 0 1 0.14285714285686729 0 1 0.28571428571359381 0 0.86802342313663505 0.2373869704637242 0 1 0.28571428571359381 0 0.90513725992141869 0.36710674629889062 0 1 0.42857142857032021 0 1 0.28571428571359381 0 0.90513725992141869 0.36710674629889062 0 0.86802342313663505 0.2373869704637242 0 0.90513725992141869 0.36710674629889062 0 0.86802342313663505 0.2373869704637242 0 0.78571428571267199 0.38141042586853341 0 0.71335089116972128 0.25578338314493299 0 0.78018926648548503 0.12559094919453551 0 0.86802342313663505 0.2373869704637242 0 0.71335089116972128 0.25578338314493299 0 0.86802342313663505 0.2373869704637242 0 0.78571428571267199 0.38141042586853341 0 0.71689882325258081 0.50562151542895928 0 0.78571428571267199 0.38141042586853341 0 0.87194859075778619 0.50245062087828152 0 0.71689882325258081 0.50562151542895928 0 0.87194859075778619 0.50245062087828152 0 0.7865654166374938 0.63474444568669874 0 0.90513725992141869 0.36710674629889062 0 0.87194859075778619 0.50245062087828152 0 1 0.42857142857032021 0 0.90513725992141869 0.36710674629889062 0 0.78571428571267199 0.38141042586853341 0 0.8719485907
[...]
<PointData Scalars="" Vectors="displacement," Tensors="">
<DataArray type="Float64" Name="displacement" NumberOfComponents="3" format="ascii">
7.1395758174446622e-05 3.6048642474930181e-08 0 0.14283816373945193 -1.5771211866245667e-08 0 0.10410543339135739 2.3860010970234067e-06 0 7.1395758174446622e-05 3.6048642474930181e-08 0 0.10410543339135739 2.3860010970234067e-06 0 0.00016185810135611729 3.1292751123866648e-08 0 0.14283816373945193 -1.5771211866245667e-08 0 0.10410543339135739 2.3860010970234067e-06 0 0.21628326889721416 -4.1027229362133082e-06 0 0.10410543339135739 2.3860010970234067e-06 0 0.12884252205340405 6.6182940256354344e-06 0 0.21628326889721416 -4.1027229362133082e-06 0 0.10410543339135739 2.3860010970234067e-06 0 0.00016185810135611729 3.1292751123866648e-08 0 0.12884252205340405 6.6182940256354344e-06 0 0.00016185810135611729 3.1292751123866648e-08 0 0.00013773438727282596 -6.4405847624565562e-09 0 0.12884252205340405 6.6182940256354344e-06 0 0.093861747672448523 3.0586439882023411e-06 0 0.00013773438727282596 -6.4405847624565562e-09 0 0.0001441931210185409 7.9748107324375927e-09 0 0.093861747672448523 3.0586439882023411e-06 0 0.00013773438727282596 -6.4405847624565562e-09 0 0.12884252205340405 6.6182940256354344e-06 0 0.093861747672448523 3.0586439882023411e-06 0 0.12884252205340405 6.6182940256354344e-06 0 0.21351484480185839 3.2148242610710003e-06 0 0.12884252205340405 6.6182940256354344e-06 0 0.28191600997307731 -7.0198917163096269e-07 0 0.21628326889721416 -4.1027229362133082e-06 0 0.12884252205340405 6.6182940256354344e-06 0 0.21351484480185839 3.2148242610710003e-06 0 0.28191600997307731 -7.0198917163096269e-07 0 0.21351484480185839 3.2148242610710003e-06 0 0.28191600997307731 -7.0198917163096269e-07 0 0.35722760406652315 -2.94944457223679e-07 0 0.28191600997307731 -7.0198917163096269e-07 0 0.35722760406652315 -2.94944457223679e-07 0 0.42862812467881534 -2.9323141958780663e-06 0 0.28191600997307731 -7.0198917163096269e-07 0 0.3542314797625431 -2.5630955335322317e-06 0 0.42862812467881534 -2.9323141958780663e-06 0 0.28191600997307731 -7.0198917163096269e-07 0 0.3542314797625431 -2.5630955335322317e-06 0 0.21628326889721416 -4.1027229362133082e-06 0 0.3542314797625431 -2.5630955335322317e-06 0 0.2857193886651645 -1.1714605238445331e-08 0 0.21628326889721416 -4.1027229362133082e-06 0 0.3542314797625431 -2.5630955335322317e-06 0 0.2857193886651645 -1.1714605238445331e-08 0 0.4285700932315476 -4.3207031899397152e-09 0 0.14283816373945193 -1.5771211866245667e-08 0 0.2857193886651645 -1.1714605238445331e-08 0 0.21628326889721416 -4.1027229362133082e-06 0 0.092106858544155013 1.5616824170344838e-06 0 0.21195100474540626 2.1675674210180347e-06 0 0.12880955542414474 1.4661945689849077e-06 0 0.00014293698412158403 1.9632263769528739e-09 0 0.092106858544155013 1.5616824170344838e-06 0 0.12880955542414474 1.4661945689849077e-06 0 0.092106858544155013 1.5616824170344838e-06 0 0.000142474359417909 1.3684459362599945e-10 0 0.12666701791928126 3.026766578196175e-06 0 0.00014293698412158403 1.9632263769528739e-09 0 0.092106858544155013 1.5616824170344838e-06 0 0.000142474359417909 1.3684459362599945e-10 0 0.092106858544155013 1.5616824170344838e-06 0 0.12666701791928126 3.026766578196175e-06 0 0.21195100474540626 2.1675674210180347e-06 0 0.000142474359417909 1.3684459362599945e-10 0 0.12666701791928126 3.026766578196175e-06 0 0.0001441931210185409 7.9748107324375927e-09 0 0.093861747672448523 3.0586439882023411e-06 0 0.12666701791928126 3.026766578196175e-06 0 0.0001441931210185409 7.9748107324375927e-09 0 0.093861747672448523 3.0586439882023411e-06 0 0.21351484480185839 3.2148242610710003e-06 0 0.12666701791928126 3.026766578196175e-06 0 0.21351484480185839 3.2148242610710003e-06 0 0.12666701791928126 3.026766578196175e-06 0 0.28581630984517525 1.8637524808573892e-06 0 0.35722760406652315 -2.94944457223679e-07 0 0.28581630984517525 1.8637524808573892e-06 0 0.42866291785188171 -7.991719279745288e-07 0 0.21351484480185839 3.2148242610710003e-06 0 0.35722760406652315 -2.94944457223679e-07 0 0.28581630984517525 1.8637524808573892e-06 0 0.28581630984517525 1.8637524808573892e-06 0 0.35667760385785457 7.8557215434685093e-07 0 0.42866291785188171 -7.991719279745288e-07 0 0.12666701791928126 3.026766578196175e-06 0 0.28581630984517525 1.8637524808573892e-06 0 0.21195100474540626 2.1675674210180347e-06 0 0.28581630984517525 1.8637524808573892e-06 0 0.21195100474540626 2.1675674210180347e-06 0 0.35667760385785457 7.8557215434685093e-07 0 0.35667760385785457 7.8557215434685093e-07 0 0.42886018878627541 -1.4651726467925861e-07 0 0.28465255152597352 1.3366031048528547e-06 0 0.21195100474540626 2.1675674210180347e-06 0 0.35667760385785457 7.8557215434685093e-07 0 0.28465255152597352 1.3366031048528547e-06 0 0.21195100474540626 2.1675674210180347e-06 0 0.28465255152597352 1.3366031048528547e-06 0 0.12880955542414474 1.4661945689849077e-06 0 0.50012003984467046 -1.4688798636308229e-06 0 0.57154018739711898 -2.1101208760797704e-06 0 0.42886018878627541 -1.4651726467925861e-07 0 0.35667760385785457 7.8557215434685093e-07 0 0.50012003984467046 -1.4688798636308229e-06 0 0.42886018878627541 -1.4651726467925861e-07 0 0.35667760385785457 7.8557215434685093e-07 0 0.50012003984467046 -1.4688798636308229e-06 0 0.42866291785188171 -7.991719279745288e-07 0 0.50012003984467046 -1.4688798636308229e-06 0 0.42866291785188171 -7.991719279745288e-07 0 0.57150466283916379 -3.2548539632990098e-06 0 0.35722760406652315 -2.94944457223679e-07 0 0.42866291785188171 -7.991719279745288e-07 0 0.50006793619019585 -2.9829207524622116e-06 0 0.42866291785188171 -7.991719279745288e-07 0 0.50006793619019585 -2.9829207524622116e-06 0 0.57150466283916379 -3.2548539632990098e-06 0 0.64291011188103686 -4.8265450710365317e-06 0 0.71695264871862374 -5.1866965663962711e-06 0 0.57150466283916379 -3.2548539632990098e-06 0 0.50006793619019585 -2.9829207524622116e-06 0 0.64291011188103686 -4.8265450710365317e-06 0 0.57150466283916379 -3.2548539632990098e-06 0 0.64291011188103686 -4.8265450710365317e-06 0 0.71695264871862374 -5.1866965663962711e-06 0 0.78575385896139194 -6.0575216930630589e-06 0 0.71695264871862374 -5.1866965663962711e-06 0 0.57150466283916379 -3.2548539632990098e-06 0 0.64293624497980317 -3.646633530199291e-06 0 0.50012003984467046 -1.4688798636308229e-06 0 0.57150466283916379 -3.2548539632990098e-06 0 0.64293624497980317 -3.646633530199291e-06 0 0.71695264871862374 -5.1866965663962711e-06 0 0.64293624497980317 -3.646633530199291e-06 0 0.78661955524538696 -5.4292043261967186e-06 0 0.64293624497980317 -3.646633530199291e-06 0 0.78661955524538696 -5.4292043261967186e-06 0 0.71543588146367887 -4.0226463518519512e-06 0 0.50012003984467046 -1.4688798636308229e-06 0 0.64293624497980317 -3.646633530199291e-06 0 0.57154018739711898 -2.1101208760797704e-06 0 0.64293624497980317 -3.646633530199291e-06 0 0.57154018739711898 -2.1101208760797704e-06 0 0.71543588146367887 -4.0226463518519512e-06 0 0.49930295806836095 -3.5227417530436581e-06 0 0.4285700932315476 -4.3207031899397152e-09 0 0.57142894586847837 -6.6659904376427705e-09 0 0.3542314797625431 -2.5630955335322317e-06 0 0.49930295806836095 -3.5227417530436581e-06 0 0.4285700932315476 -4.3207031899397152e-09 0 0.3542314797625431 -2.5630955335322317e-06 0 0.49930295806836095 -3.5227417530436581e-06 0 0.42862812467881534 -2.9323141958780663e-06 0 0.35722760406652315 -2.94944457223679e-07 0 0.50006793619019585 -2.9829207524622116e-06 0 0.42862812467881534 -2.9323141958780663e-06 0 0.50006793619019585 -2.9829207524622116e-06 0 0.42862812467881534 -2.9323141958780663e-06 0 0.57138635730728593 -4.4187281485123844e-06 0 0.49930295806836095 -3.5227417530436581e-06 0 0.42862812467881534 -2.9323141958780663e-06 0 0.57138635730728593 -4.4187281485123844e-06 0 0.57138635730728593 -4.4187281485123844e-06 0 0.71338402001693868 -5.2102104558969156e-06 0 0.64225982954849004 -3.6044836028953574e-06 0 0.64291011188103686 -4.8265450710365317e-06 0 0.57138635730728593 -4.4187281485123844e-06 0 0.71338402001693868 -5.2102104558969156e-06 0 0.50006793619019585 -2.9829207524622116e-06 0 0.64291011188103686 -4.8265450710365317e-06 0 0.57138635730728593 -4.4187281485123844e-06 0 0.64291011188103686 -4.8265450710365317e-06 0 0.71338402001693868 -5.2102104558969156e-06 0 0.78575385896139194 -6.0575216930630589e-06 0 0.71338402001693868 -5.2102104558969156e-06 0 0.64225982954849004 -3.6044836028953574e-06 0 0.78020442360274034 -3.6741649003439801e-06 0 0.49930295806836095 -3.5227417530436581e-06 0 0.57138635730728593 -4.4187281485123844e-06 0 0.64225982954849004 -3.6044836028953574e-06 0 0.64225982954849004 -3.6044836028953574e-06 0 0.57142894586847837 -6.6659904376427705e-09 0 0.7142856276731262 -5.0764092899735048e-09 0 0.49930295806836095 -3.5227417530436581e-06 0 0.64225982954849004 -3.6044836028953574e-06 0 0.57142894586847837 -6.6659904376427705e-09 0 0.64225982954849004 -3.6044836028953574e-06 0 0.7142856276731262 -5.0764092899735048e-09 0 0.78020442360274034 -3.6741649003439801e-06 0 0.7142856276731262 -5.0764092899735048e-09 0 0.78020442360274034 -3.6741649003439801e-06 0 0.85714288991183696 -4.7929943299661101e-09 0 0.78020442360274034 -3.6741649003439801e-06 0 0.89543125542495794 -3.0063349673852749e-06 0 0.86804611838884849 -5.5007734045207385e-06 0 0.89543125542495794 -3.0063349673852749e-06 0 1.0000105406472739 -3.908888616066643e-06 0 0.86804611838884849 -5.5007734045207385e-06 0 0.89543125542495794 -3.0063349673852749e-06 0 0.85714288991183696 -4.7929943299661101e-09 0 0.99999999845277543 -5.120817048141252e-09 0 0.78020442360274034 -3.6741649003439801e-06 0 0.89543125542495794 -3.0063349673852749e-06 0 0.85714288991183696 -4.7929943299661101e-09 0 0.89543125542495794 -3.0063349673852749e-06 0 0.99999999845277543 -5.120817048141252e-09 0 1.0000105406472739 -3.908888616066643e-06 0 1.0000105406472739 -3.908888616066643e-06 0 1.1045846261495513 -3.0409607201712993e-06 0 1.1165603126860812 -5.4978153467422453e-06 0 0.99999999845277543 -5.120817048141252e-09 0 1.0000105406472739 -3.908888616066643e-06 0 1.1045846261495513 -3.0409607201712993e-06 0 0.99999999845277543 -5.120817048141252e-09 0 1.1045846261495513 -3.0409607201712993e-06 0 1.1428571486670711 -4.6504216367152071e-09 0 1.1204267228895863 -7.2139986912873029e-06 0 1.0000200873333014 -6.1782154930586915e-06 0 1.0000279500750546 -7.2349725962597319e-06 0 1.1204267228895863 -7.2139986912873029e-06 0 1.1165603126860812 -5.4978153467422453e-06 0 1.0000200873333014 -6.1782154930586915e-06 0 1.0000105406472739 -3.908888616066643e-06 0 1.1165603126860812 -5.4978153467422453e-06 0 1.0000200873333014 -6.1782154930586915e-06 0 1.0000105406472739 -3.908888616066643e-06 0 1.0000200873333014 -6.1782154930586915e-06 0 0.86804611838884849 -5.5007734045207385e-06 0 1.0000200873333014 -6.1782154930586915e-06 0 0.90516774677778666 -6.561019891850293e-06 0 1.0000279500750546 -7.2349725962597319e-06 0 1.0000200873333014 -6.1782154930586915e-06 0 0.90516774677778666 -6.561019891850293e-06 0 0.86804611838884849 -5.5007734045207385e-06 0 0.90516774677778666 -6.561019891850293e-06 0 0.86804611838884849 -5.5007734045207385e-06 0 0.78575385896139194 -6.0575216930630589e-06 0 0.71338402001693868 -5.2102104558969156e-06 0 0.78020442360274034 -3.6741649003439801e-06 0 0.86804611838884849 -5.5007734045207385e-06 0 0.71338402001693868 -5.2102104558969156e-06 0 0.86804611838884849 -5.5007734045207385e-06 0 0.78575385896139194 -6.0575216930630589e-06 0 0.71695264871862374 -5.1866965663962711e-06 0 0.78575385896139194 -6.0575216930630589e-06 0 0.87198930827309251 -6.6336373948028587e-06 0 0.71695264871862374 -5.1866965663962711e-06 0 0.87198930827309251 -6.6336373948028587e-06 0 0.78661955524538696 -5.4292043261967186e-06 0 0.90516774677778666 -6.561019891850293e-06 0 0.87198930827309251 -6.6336373948028587e-06 0 1.0000279500750546 -7.2349725962597319e-06 0 0.90516774677778666 -6.561019891850293e-06 0 0.78575385896139194 -6.0575216930630589e-06 0 0.87198930827309251 -6.6336373948028587e-06 0 0.78661955524538696 -5.4292043261967186e-06 0 0.87066588083719076 -5.6824579927818414e-06 0 0.71543588146367887 -4.0226463518519512e-06 0 0.87198930827309251 -6.6336373948028587e-06 0 0.90586973652366221 -6.5176900018354065e-06 0 1.0000340410111683 -7.341328616292134e-06 0 0.87198930827309251 -6.6336373948028587e-06 0 0.78661955524538696 -5.4292043261967186e-06 0 0.90586973652366221 -6.5176900018354065e-06 0 0.90586973652366221 -6.5176900018354065e-06 0 1.0000385066105775 -6.9831819831453584e-06 0 0.87066588083719076 -5.6824579927818414e-06 0 0.78661955524538696 -5.4292043261967186e-06 0 0.90586973652366221 -6.5176900018354065e-06 0 0.87066588083719076 -5.6824579927818414e-06 0 0.90586973652366221 -6.5176900018354065e-06 0 1.0000385066105775 -6.9831819831453584e-06 0 1.0000340410111683 -7.341328616292134e-06 0 1.0000340410111683 -7.341328616292134e-06 0 1.1231119742573001 -7.9171641124747023e-06 0 1.1231334831664432 -7.9342622282162503e-06 0 1.0000385066105775 -6.9831819831453584e-06 0 1.0000340410111683 -7.341328616292134e-06 0 1.1231119742573001 -7.9171641124747023e-06 0 1.0000385066105775 -6.9831819831453584e-06 0 1.1231119742573001 -7.9171641124747023e-06 0 1.1205580342352475 -7.4562943892831936e-06 0 0.87198930827309251 -6.6336373948028587e-06 0 1.0000340410111683 -7.341328616292134e-06 0 1.0000279500750546 -7.2349725962597319e-06 0 1.0000340410111683 -7.341328616292134e-06 0 1.0000279500750546 -7.2349725962597319e-06 0 1.1231334831664432 -7.9342622282162503e-06 0 1.1204267228895863 -7.2139986912873029e-06 0 1.0000279500750546 -7.2349725962597319e-06 0 1.1231334831664432 -7.9342622282162503e-06 0 1.1204267228895863 -7.2139986912873029e-06 0 1.1231334831664432 -7.9342622282162503e-06 0 1.2430060950774091 -7.9665506858996327e-06 0 1.1231334831664432 -7.9342622282162503e-06 0 1.2430060950774091 -7.9665506858996327e-06 0 1.2472456691596583 -8.4269994228137951e-06 0 1.2430060950774091 -7.9665506858996327e-06 0 1.2472456691596583 -8.4269994228137951e-06 0 1.3691305711220751 -8.4954901348932998e-06 0 1.1231119742573001 -7.9171641124747023e-06 0 1.2467210454578288 -8.2309113130073862e-06 0 1.1205580342352475 -7.4562943892831936e-06 0 1.1231119742573001 -7.9171641124747023e-06 0 1.1231334831664432 -7.9342622282162503e-06 0 1.2472456691596583 -8.4269994228137951e-06 0 1.1231119742573001 -7.9171641124747023e-06 0 1.2472456691596583 -8.4269994228137951e-06 0 1.2467210454578288 -8.2309113130073862e-06 0 1.2472456691596583 -8.4269994228137951e-06 0 1.2467210454578288 -8.2309113130073862e-06 0 1.3707898513799535 -8.6739174021523595e-06 0 1.2467210454578288 -8.2309113130073862e-06 0 1.3707898513799535 -8.6739174021523595e-06 0 1.3690906353376104 -8.3001287749723412e-06 0 1.2472456691596583 -8.4269994228137951e-06 0 1.3707898513799535 -8.6739174021523595e-06 0 1.3691305711220751 -8.4954901348932998e-06 0 1.3707898513799535 -8.6739174021523595e-06 0 1.4944714031312927 -8.7538728391699313e-06 0 1.4948720504238122 -8.6334218799901473e-06 0 1.3707898513799535 -8.6739174021523595e-06 0 1.4944714031312927 -8.7538728391699313e-06 0 1.3691305711220751 -8.4954901348932998e-06 0 1.3707898513799535 -8.6739174021523595e-06 0 1.4948720504238122 -8.6334218799901473e-06 0 1.3690906353376104 -8.3001287749723412e-06 0 1.2430060950774091 -7.9665506858996327e-06 0 1.3691305711220751 -8.4954901348932998e-06 0 1.3659199934736559 -7.5130067596759606e-06 0 1.4944714031312927 -8.7538728391699313e-06 0 1.3691305711220751 -8.4954901348932998e-06 0 1.4932109217703133 -8.1691609025896742e-06 0 1.3691305711220751 -8.4954901348932998e-06 0 1.4932109217703133 -8.1691609025896742e-06 0 1.3659199934736559 -7.5130067596759606e-06 0 1.4932109217703133 -8.1691609025896742e-06 0 1.3659199934736559 -7.5130067596759606e-06 0 1.4945917626733474 -6.5860066226689932e-06 0 1.3659199934736559 -7.5130067596759606e-06 0 1.3628011165564107 -5.4349201356293507e-06 0 1.2398115031480674 -6.580798882977751e-06 0 1.3628011165564107 -5.4349201356293507e-06 0 1.4945917626733474 -6.5860066226689932e-06 0 1.4981773348366996 -3.6921871806814847e-06 0 1.3659199934736559 -7.5130067596759606e-06 0 1.3628011165564107 -5.4349201356293507e-06 0 1.4945917626733474 -6.5860066226689932e-06 0 1.4981773348366996 -3.6921871806814847e-06 0 1.428571430076625 -4.7160435993032423e-09 0 1.3571446108869683 -2.6125201844335021e-06 0 1.4981773348366996 -3.6921871806814847e-06 0 1.428571430076625 -4.7160435993032423e-09 0 1.5714285699844506 -4.6642183628084705e-09 0 1.428571430076625 -4.7160435993032423e-09 0 1.3571446108869683 -2.6125201844335021e-06 0 1.2857142867214051 -4.6490767274568869e-09 0 1.3628011165564107 -5.4349201356293507e-06 0 1.3571446108869683 -2.6125201844335021e-06 0 1.2304892469313167 -3.7631800088802639e-06 0 1.3628011165564107 -5.4349201356293507e-06 0 1.4981773348366996 -3.6921871806814847e-06 0 1.3571446108869683 -2.6125201844335021e-06 0 1.2304892469313167 -3.7631800088802639e-06 0 1.2857142867214051 -4.6490767274568869e-09 0 1.1428571486670711 -4.6504216367152071e-09 0 1.3571446108869683 -2.6125201844335021e-06 0 1.2304892469313167 -3.7631800088802639e-06 0 1.2857142867214051 -4.6490767274568869e-09 0 1.1045846261495513 -3.0409607201712993e-06 0 1.2304892469313167 -3.7631800088802639e-06 0 1.1428571486670711 -4.6504216367152071e-09 0 1.1045846261495513 -3.0409607201712993e-06 0 1.1165603126860812 -5.4978153467422453e-06 0 1.2304892469313167 -3.7631800088802639e-06 0 1.1165603126860812 -5.4978153467422453e-06 0 1.2304892469313167 -3.7631800088802639e-06 0 1.2398115031480674 -6.580798882977751e-06 0 1.1204267228895863 -7.2139986912873029e-06 0 1.2430060950774091 -7.9665506858996327e-06 0 1.2398115031480674 -6.580798882977751e-06 0 1.1204267228895863 -7.2139986912873029e-06 0 1.1165603126860812 -5.4978153467422453e-06 0 1.2398115031480674 -6.580798882977751e-06 0 1.2430060950774091 -7.9665506858996327e-06 0 1.3659199934736559 -7.5130067596759606e-06 0 1.2398115031480674 -6.580798882977751e-06 0 1.3628011165564107 -5.4349201356293507e-06 0 1.2304892469313167 -3.7631800088802639e-06 0 1.2398115031480674 -6.580798882977751e-06 0 1.2843385585502083 -3.52843570182636e-06 0 1.3565324912619838 -5.3472003963148993e-06 0 1.217161604334724 -5.1426166558089839e-06 0 1.2843385585502083 -3.52843570182636e-06 0 1.1310241155292218 -3.419151353666323e-06 0 1.217161604334724 -5.1426166558089839e-06 0 1.1310241155292218 -3.419151353666323e-06 0 1.217161604334724 -5.1426166558089839e-06 0 1.1046140547285377 -4.9279582028829648e-06 0 1.2843385585502083 -3.52843570182636e-06 0 1.1310241155292218 -3.419151353666323e-06 0 1.2143123164512473 -1.631929520696354e-06 0 1.1310241155292218 -3.419151353666323e-06 0 1.2143123164512473 -1.631929520696354e-06 0 1.0966497833056019 -1.7763478606832464e-06 0 1.2143123164512473 -1.631929520696354e-06 0 1.126577737851943 2.3479576576797226e-08 0 1.2857342898225748 7.638438022642896e-08 0 1.2143123164512473 -1.631929520696354e-06 0 1.0966497833056019 -1.7763478606832464e-06 0 1.126577737851943 2.3479576576797226e-08 0 1.2143123164512473 -1.631929520696354e-06 0 1.3557371620651515 -1.756185093683389e-06 0 1.2857342898225748 7.638438022642896e-08 0 1.2843385585502083 -3.52843570182636e-06 0 1.2143123164512473 -1.631929520696354e-06 0 1.3557371620651515 -1.756185093683389e-06 0 1.3557371620651515 -1.756185093683389e-06 0 1.2857342898225748 7.638438022642896e-08 0 1.4285857543131395 7.9151762856999696e-08 0 1.3557371620651515 -1.756185093683389e-06 0 1.4999999727574238 -1.7794326373891894e-06 0 1.4285857543131395 7.9151762856999696e-08 0 1.3557371620651515 -1.756185093683389e-06 0 1.4999999727574238 -1.7794326373891894e-06 0 1.4269212143295227 -3.6298543873832528e-06 0 1.4999999727574238 -1.7794326373891894e-06 0 1.4269212143295227 -3.6298543873832528e-06 0 1.571146102467359 -3.616419512107853e-06 0 1.2843385585502083 -3.52843570182636e-06 0 1.3557371620651515 -1.756185093683389e-06 0 1.4269212143295227 -3.6298543873832528e-06 0 1.2843385585502083 -3.52843570182636e